ITEM: TIMESTEP 
0 
ITEM: NUMBER OF ATOMS 
4 
ITEM: BOX BOUNDS 
0.000000e+00 2.000000e+00 xlo xhi 
0.000000e+00 2.000000e+00 xlo xhi 
0.000000e+00 2.000000e+00 xlo xhi 
ITEM: ATOMS id type x y z 
0 0 6.327931e-01 9.041049e-01 5.325870e-01 
1 1 7.049285e-01 1.356757e-01 1.253230e+00 
2 2 1.383471e+00 1.290441e+00 1.452370e+00 
3 3 1.636178e+00 4.918597e-01 1.521887e-01 
ITEM: TIMESTEP 
0 
ITEM: NUMBER OF ATOMS 
4 
ITEM: BOX BOUNDS 
0.000000e+00 2.000000e+00 xlo xhi 
0.000000e+00 2.000000e+00 xlo xhi 
0.000000e+00 2.000000e+00 xlo xhi 
ITEM: ATOMS id type x y z 
0 0 6.343575e-01 9.021086e-01 5.312582e-01 
1 1 7.047619e-01 1.363125e-01 1.253788e+00 
2 2 1.382172e+00 1.291253e+00 1.453060e+00 
3 3 1.636025e+00 4.922712e-01 1.521022e-01 
ITEM: TIMESTEP 
0 
ITEM: NUMBER OF ATOMS 
4 
ITEM: BOX BOUNDS 
0.000000e+00 2.000000e+00 xlo xhi 
0.000000e+00 2.000000e+00 xlo xhi 
0.000000e+00 2.000000e+00 xlo xhi 
ITEM: ATOMS id type x y z 
0 0 6.509506e-01 8.806600e-01 5.177981e-01 
1 1 7.044688e-01 1.421125e-01 1.259417e+00 
2 2 1.368880e+00 1.299163e+00 1.460964e+00 
3 3 1.632990e+00 4.970136e-01 1.518818e-01 
ITEM: TIMESTEP 
0 
ITEM: NUMBER OF ATOMS 
4 
ITEM: BOX BOUNDS 
0.000000e+00 2.000000e+00 xlo xhi 
0.000000e+00 2.000000e+00 xlo xhi 
0.000000e+00 2.000000e+00 xlo xhi 
ITEM: ATOMS id type x y z 
0 0 6.712709e-01 8.600807e-01 5.069013e-01 
1 1 7.057326e-01 1.491182e-01 1.263771e+00 
2 2 1.355501e+00 1.307357e+00 1.468935e+00 
3 3 1.625134e+00 5.031206e-01 1.506950e-01 
ITEM: TIMESTEP 
0 
ITEM: NUMBER OF ATOMS 
4 
ITEM: BOX BOUNDS 
0.000000e+00 2.000000e+00 xlo xhi 
0.000000e+00 2.000000e+00 xlo xhi 
0.000000e+00 2.000000e+00 xlo xhi 
ITEM: ATOMS id type x y z 
0 0 6.941739e-01 8.412581e-01 4.992214e-01 
1 1 7.103511e-01 1.549667e-01 1.265710e+00 
2 2 1.340432e+00 1.315535e+00 1.476061e+00 
3 3 1.613503e+00 5.119415e-01 1.478226e-01 
ITEM: TIMESTEP 
0 
ITEM: NUMBER OF ATOMS 
4 
ITEM: BOX BOUNDS 
0.000000e+00 2.000000e+00 xlo xhi 
0.000000e+00 2.000000e+00 xlo xhi 
0.000000e+00 2.000000e+00 xlo xhi 
ITEM: ATOMS id type x y z 
0 0 7.184284e-01 8.226896e-01 4.931987e-01 
1 1 7.170024e-01 1.611900e-01 1.265833e+00 
2 2 1.323906e+00 1.324777e+00 1.482361e+00 
3 3 1.600022e+00 5.223986e-01 1.433497e-01 
ITEM: TIMESTEP 
0 
ITEM: NUMBER OF ATOMS 
4 
ITEM: BOX BOUNDS 
0.000000e+00 2.000000e+00 xlo xhi 
0.000000e+00 2.000000e+00 xlo xhi 
0.000000e+00 2.000000e+00 xlo xhi 
ITEM: ATOMS id type x y z 
0 0 7.465378e-01 8.046277e-01 4.895503e-01 
1 1 7.270213e-01 1.657443e-01 1.265843e+00 
2 2 1.305624e+00 1.332738e+00 1.488233e+00 
3 3 1.584488e+00 5.312767e-01 1.361151e-01 
ITEM: TIMESTEP 
0 
ITEM: NUMBER OF ATOMS 
4 
ITEM: BOX BOUNDS 
0.000000e+00 2.000000e+00 xlo xhi 
0.000000e+00 2.000000e+00 xlo xhi 
0.000000e+00 2.000000e+00 xlo xhi 
ITEM: ATOMS id type x y z 
0 0 7.754293e-01 7.881040e-01 4.876972e-01 
1 1 7.377855e-01 1.696254e-01 1.268669e+00 
2 2 1.285141e+00 1.339128e+00 1.493411e+00 
3 3 1.568248e+00 5.391105e-01 1.277835e-01 
ITEM: TIMESTEP 
0 
ITEM: NUMBER OF ATOMS 
4 
ITEM: BOX BOUNDS 
0.000000e+00 2.000000e+00 xlo xhi 
0.000000e+00 2.000000e+00 xlo xhi 
0.000000e+00 2.000000e+00 xlo xhi 
ITEM: ATOMS id type x y z 
0 0 8.057449e-01 7.737313e-01 4.833009e-01 
1 1 7.495722e-01 1.745319e-01 1.272234e+00 
2 2 1.264451e+00 1.343558e+00 1.500648e+00 
3 3 1.550892e+00 5.477985e-01 1.177024e-01 
ITEM: TIMESTEP 
0 
ITEM: NUMBER OF ATOMS 
4 
ITEM: BOX BOUNDS 
0.000000e+00 2.000000e+00 xlo xhi 
0.000000e+00 2.000000e+00 xlo xhi 
0.000000e+00 2.000000e+00 xlo xhi 
ITEM: ATOMS id type x y z 
0 0 8.373298e-01 7.619457e-01 4.765704e-01 
1 1 7.607122e-01 1.811196e-01 1.278349e+00 
2 2 1.243148e+00 1.345099e+00 1.509920e+00 
3 3 1.531665e+00 5.579318e-01 1.071182e-01 
ITEM: TIMESTEP 
0 
ITEM: NUMBER OF ATOMS 
4 
ITEM: BOX BOUNDS 
0.000000e+00 2.000000e+00 xlo xhi 
0.000000e+00 2.000000e+00 xlo xhi 
0.000000e+00 2.000000e+00 xlo xhi 
ITEM: ATOMS id type x y z 
0 0 8.698239e-01 7.542562e-01 4.678778e-01 
1 1 7.714089e-01 1.868343e-01 1.285839e+00 
2 2 1.222600e+00 1.345725e+00 1.520619e+00 
3 3 1.509676e+00 5.696021e-01 9.608572e-02 
ITEM: TIMESTEP 
0 
ITEM: NUMBER OF ATOMS 
4 
ITEM: BOX BOUNDS 
0.000000e+00 2.000000e+00 xlo xhi 
0.000000e+00 2.000000e+00 xlo xhi 
0.000000e+00 2.000000e+00 xlo xhi 
ITEM: ATOMS id type x y z 
0 0 9.015504e-01 7.476923e-01 4.555646e-01 
1 1 7.835695e-01 1.927230e-01 1.294245e+00 
2 2 1.201449e+00 1.345601e+00 1.534382e+00 
3 3 1.485065e+00 5.828825e-01 8.405961e-02 
ITEM: TIMESTEP 
0 
ITEM: NUMBER OF ATOMS 
4 
ITEM: BOX BOUNDS 
0.000000e+00 2.000000e+00 xlo xhi 
0.000000e+00 2.000000e+00 xlo xhi 
0.000000e+00 2.000000e+00 xlo xhi 
ITEM: ATOMS id type x y z 
0 0 9.332365e-01 7.414434e-01 4.425462e-01 
1 1 7.972701e-01 1.998312e-01 1.304419e+00 
2 2 1.180488e+00 1.345838e+00 1.548504e+00 
3 3 1.457468e+00 5.969117e-01 6.894042e-02 
ITEM: TIMESTEP 
0 
ITEM: NUMBER OF ATOMS 
4 
ITEM: BOX BOUNDS 
0.000000e+00 2.000000e+00 xlo xhi 
0.000000e+00 2.000000e+00 xlo xhi 
0.000000e+00 2.000000e+00 xlo xhi 
ITEM: ATOMS id type x y z 
0 0 9.656254e-01 7.357460e-01 4.291711e-01 
1 1 8.132359e-01 2.087673e-01 1.314429e+00 
2 2 1.159352e+00 1.343569e+00 1.564270e+00 
3 3 1.428302e+00 6.127788e-01 4.954110e-02 
ITEM: TIMESTEP 
0 
ITEM: NUMBER OF ATOMS 
4 
ITEM: BOX BOUNDS 
0.000000e+00 2.000000e+00 xlo xhi 
0.000000e+00 2.000000e+00 xlo xhi 
0.000000e+00 2.000000e+00 xlo xhi 
ITEM: ATOMS id type x y z 
0 0 9.946314e-01 7.297238e-01 4.201302e-01 
1 1 8.301956e-01 2.195479e-01 1.323040e+00 
2 2 1.139328e+00 1.340578e+00 1.582248e+00 
3 3 1.404315e+00 6.277374e-01 2.531891e-02 
ITEM: TIMESTEP 
0 
ITEM: NUMBER OF ATOMS 
4 
ITEM: BOX BOUNDS 
0.000000e+00 2.000000e+00 xlo xhi 
0.000000e+00 2.000000e+00 xlo xhi 
0.000000e+00 2.000000e+00 xlo xhi 
ITEM: ATOMS id type x y z 
0 0 1.013155e+00 7.264005e-01 4.220606e-01 
1 1 8.476204e-01 2.303790e-01 1.328184e+00 
2 2 1.118948e+00 1.337409e+00 1.602912e+00 
3 3 1.392492e+00 6.393952e-01 1.992257e+00 
ITEM: TIMESTEP 
0 
ITEM: NUMBER OF ATOMS 
4 
ITEM: BOX BOUNDS 
0.000000e+00 2.000000e+00 xlo xhi 
0.000000e+00 2.000000e+00 xlo xhi 
0.000000e+00 2.000000e+00 xlo xhi 
ITEM: ATOMS id type x y z 
0 0 1.022327e+00 7.247542e-01 4.351453e-01 
1 1 8.653897e-01 2.400767e-01 1.330883e+00 
2 2 1.096715e+00 1.333476e+00 1.625794e+00 
3 3 1.387223e+00 6.497475e-01 1.948486e+00 
ITEM: TIMESTEP 
0 
ITEM: NUMBER OF ATOMS 
4 
ITEM: BOX BOUNDS 
0.000000e+00 2.000000e+00 xlo xhi 
0.000000e+00 2.000000e+00 xlo xhi 
0.000000e+00 2.000000e+00 xlo xhi 
ITEM: ATOMS id type x y z 
0 0 1.026915e+00 7.233313e-01 4.550352e-01 
1 1 8.833869e-01 2.502827e-01 1.330456e+00 
2 2 1.076651e+00 1.329260e+00 1.649293e+00 
3 3 1.383557e+00 6.596598e-01 1.900794e+00 
ITEM: TIMESTEP 
0 
ITEM: NUMBER OF ATOMS 
4 
ITEM: BOX BOUNDS 
0.000000e+00 2.000000e+00 xlo xhi 
0.000000e+00 2.000000e+00 xlo xhi 
0.000000e+00 2.000000e+00 xlo xhi 
ITEM: ATOMS id type x y z 
0 0 1.030864e+00 7.214826e-01 4.755798e-01 
1 1 9.020147e-01 2.626843e-01 1.330048e+00 
2 2 1.058730e+00 1.324329e+00 1.671456e+00 
3 3 1.381325e+00 6.692690e-01 1.852194e+00 
ITEM: TIMESTEP 
0 
ITEM: NUMBER OF ATOMS 
4 
ITEM: BOX BOUNDS 
0.000000e+00 2.000000e+00 xlo xhi 
0.000000e+00 2.000000e+00 xlo xhi 
0.000000e+00 2.000000e+00 xlo xhi 
ITEM: ATOMS id type x y z 
0 0 1.034229e+00 7.196666e-01 4.961037e-01 
1 1 9.190198e-01 2.750576e-01 1.330480e+00 
2 2 1.040679e+00 1.317133e+00 1.695103e+00 
3 3 1.380100e+00 6.775123e-01 1.803460e+00 
ITEM: TIMESTEP 
0 
ITEM: NUMBER OF ATOMS 
4 
ITEM: BOX BOUNDS 
0.000000e+00 2.000000e+00 xlo xhi 
0.000000e+00 2.000000e+00 xlo xhi 
0.000000e+00 2.000000e+00 xlo xhi 
ITEM: ATOMS id type x y z 
0 0 1.037525e+00 7.186803e-01 5.147816e-01 
1 1 9.384104e-01 2.869370e-01 1.332391e+00 
2 2 1.021368e+00 1.311583e+00 1.718766e+00 
3 3 1.378590e+00 6.876995e-01 1.753917e+00 
ITEM: TIMESTEP 
0 
ITEM: NUMBER OF ATOMS 
4 
ITEM: BOX BOUNDS 
0.000000e+00 2.000000e+00 xlo xhi 
0.000000e+00 2.000000e+00 xlo xhi 
0.000000e+00 2.000000e+00 xlo xhi 
ITEM: ATOMS id type x y z 
0 0 1.039496e+00 7.171365e-01 5.327378e-01 
1 1 9.605889e-01 2.983229e-01 1.334558e+00 
2 2 1.002224e+00 1.308617e+00 1.741588e+00 
3 3 1.376417e+00 6.973748e-01 1.703728e+00 
ITEM: TIMESTEP 
0 
ITEM: NUMBER OF ATOMS 
4 
ITEM: BOX BOUNDS 
0.000000e+00 2.000000e+00 xlo xhi 
0.000000e+00 2.000000e+00 xlo xhi 
0.000000e+00 2.000000e+00 xlo xhi 
ITEM: ATOMS id type x y z 
0 0 1.041355e+00 7.154068e-01 5.497179e-01 
1 1 9.830375e-01 3.094988e-01 1.336095e+00 
2 2 9.850384e-01 1.306552e+00 1.764298e+00 
3 3 1.372334e+00 7.078885e-01 1.652495e+00 
ITEM: TIMESTEP 
0 
ITEM: NUMBER OF ATOMS 
4 
ITEM: BOX BOUNDS 
0.000000e+00 2.000000e+00 xlo xhi 
0.000000e+00 2.000000e+00 xlo xhi 
0.000000e+00 2.000000e+00 xlo xhi 
ITEM: ATOMS id type x y z 
0 0 1.044920e+00 7.145521e-01 5.659410e-01 
1 1 1.004699e+00 3.193096e-01 1.338378e+00 
2 2 9.694290e-01 1.303930e+00 1.785018e+00 
3 3 1.366857e+00 7.213019e-01 1.604100e+00 
ITEM: TIMESTEP 
0 
ITEM: NUMBER OF ATOMS 
4 
ITEM: BOX BOUNDS 
0.000000e+00 2.000000e+00 xlo xhi 
0.000000e+00 2.000000e+00 xlo xhi 
0.000000e+00 2.000000e+00 xlo xhi 
ITEM: ATOMS id type x y z 
0 0 1.049647e+00 7.135453e-01 5.804721e-01 
1 1 1.021687e+00 3.272665e-01 1.338399e+00 
2 2 9.541515e-01 1.296715e+00 1.804528e+00 
3 3 1.366170e+00 7.413408e-01 1.559668e+00 
ITEM: TIMESTEP 
0 
ITEM: NUMBER OF ATOMS 
4 
ITEM: BOX BOUNDS 
0.000000e+00 2.000000e+00 xlo xhi 
0.000000e+00 2.000000e+00 xlo xhi 
0.000000e+00 2.000000e+00 xlo xhi 
ITEM: ATOMS id type x y z 
0 0 1.054820e+00 7.124764e-01 5.952318e-01 
1 1 1.031283e+00 3.276827e-01 1.333586e+00 
2 2 9.411415e-01 1.286752e+00 1.823482e+00 
3 3 1.372455e+00 7.694048e-01 1.520413e+00 
ITEM: TIMESTEP 
0 
ITEM: NUMBER OF ATOMS 
4 
ITEM: BOX BOUNDS 
0.000000e+00 2.000000e+00 xlo xhi 
0.000000e+00 2.000000e+00 xlo xhi 
0.000000e+00 2.000000e+00 xlo xhi 
ITEM: ATOMS id type x y z 
0 0 1.060143e+00 7.119336e-01 6.111469e-01 
1 1 1.033601e+00 3.203479e-01 1.324868e+00 
2 2 9.291168e-01 1.274263e+00 1.839024e+00 
3 3 1.384036e+00 8.072563e-01 1.485187e+00 
ITEM: TIMESTEP 
0 
ITEM: NUMBER OF ATOMS 
4 
ITEM: BOX BOUNDS 
0.000000e+00 2.000000e+00 xlo xhi 
0.000000e+00 2.000000e+00 xlo xhi 
0.000000e+00 2.000000e+00 xlo xhi 
ITEM: ATOMS id type x y z 
0 0 1.064075e+00 7.115864e-01 6.279922e-01 
1 1 1.032260e+00 3.105623e-01 1.313294e+00 
2 2 9.195640e-01 1.261273e+00 1.851192e+00 
3 3 1.397810e+00 8.497322e-01 1.452272e+00 
ITEM: TIMESTEP 
0 
ITEM: NUMBER OF ATOMS 
4 
ITEM: BOX BOUNDS 
0.000000e+00 2.000000e+00 xlo xhi 
0.000000e+00 2.000000e+00 xlo xhi 
0.000000e+00 2.000000e+00 xlo xhi 
ITEM: ATOMS id type x y z 
0 0 1.066631e+00 7.084598e-01 6.438108e-01 
1 1 1.030000e+00 3.019412e-01 1.303463e+00 
2 2 9.095206e-01 1.245046e+00 1.861559e+00 
3 3 1.409217e+00 8.927265e-01 1.419625e+00 
ITEM: TIMESTEP 
0 
ITEM: NUMBER OF ATOMS 
4 
ITEM: BOX BOUNDS 
0.000000e+00 2.000000e+00 xlo xhi 
0.000000e+00 2.000000e+00 xlo xhi 
0.000000e+00 2.000000e+00 xlo xhi 
ITEM: ATOMS id type x y z 
0 0 1.070544e+00 7.040566e-01 6.598885e-01 
1 1 1.028864e+00 2.959085e-01 1.294081e+00 
2 2 9.002069e-01 1.226535e+00 1.868197e+00 
3 3 1.417728e+00 9.345195e-01 1.386230e+00 
ITEM: TIMESTEP 
0 
ITEM: NUMBER OF ATOMS 
4 
ITEM: BOX BOUNDS 
0.000000e+00 2.000000e+00 xlo xhi 
0.000000e+00 2.000000e+00 xlo xhi 
0.000000e+00 2.000000e+00 xlo xhi 
ITEM: ATOMS id type x y z 
0 0 1.073191e+00 7.002901e-01 6.768379e-01 
1 1 1.027701e+00 2.936060e-01 1.285631e+00 
2 2 8.916326e-01 1.205038e+00 1.873021e+00 
3 3 1.424312e+00 9.738370e-01 1.355303e+00 
ITEM: TIMESTEP 
0 
ITEM: NUMBER OF ATOMS 
4 
ITEM: BOX BOUNDS 
0.000000e+00 2.000000e+00 xlo xhi 
0.000000e+00 2.000000e+00 xlo xhi 
0.000000e+00 2.000000e+00 xlo xhi 
ITEM: ATOMS id type x y z 
0 0 1.076070e+00 6.959064e-01 6.938176e-01 
1 1 1.025188e+00 2.960156e-01 1.277995e+00 
2 2 8.857353e-01 1.181801e+00 1.875456e+00 
3 3 1.429457e+00 1.011428e+00 1.325502e+00 
ITEM: TIMESTEP 
0 
ITEM: NUMBER OF ATOMS 
4 
ITEM: BOX BOUNDS 
0.000000e+00 2.000000e+00 xlo xhi 
0.000000e+00 2.000000e+00 xlo xhi 
0.000000e+00 2.000000e+00 xlo xhi 
ITEM: ATOMS id type x y z 
0 0 1.079008e+00 6.939361e-01 7.117393e-01 
1 1 1.023331e+00 3.006996e-01 1.272258e+00 
2 2 8.781067e-01 1.158186e+00 1.876253e+00 
3 3 1.433638e+00 1.048508e+00 1.295179e+00 
ITEM: TIMESTEP 
0 
ITEM: NUMBER OF ATOMS 
4 
ITEM: BOX BOUNDS 
0.000000e+00 2.000000e+00 xlo xhi 
0.000000e+00 2.000000e+00 xlo xhi 
0.000000e+00 2.000000e+00 xlo xhi 
ITEM: ATOMS id type x y z 
0 0 1.081420e+00 6.906431e-01 7.285189e-01 
1 1 1.021453e+00 3.077094e-01 1.267668e+00 
2 2 8.705905e-01 1.133163e+00 1.875279e+00 
3 3 1.435517e+00 1.083717e+00 1.265636e+00 
ITEM: TIMESTEP 
0 
ITEM: NUMBER OF ATOMS 
4 
ITEM: BOX BOUNDS 
0.000000e+00 2.000000e+00 xlo xhi 
0.000000e+00 2.000000e+00 xlo xhi 
0.000000e+00 2.000000e+00 xlo xhi 
ITEM: ATOMS id type x y z 
0 0 1.082921e+00 6.883267e-01 7.452034e-01 
1 1 1.018642e+00 3.173190e-01 1.264495e+00 
2 2 8.618830e-01 1.105614e+00 1.872933e+00 
3 3 1.436436e+00 1.116098e+00 1.235212e+00 
ITEM: TIMESTEP 
0 
ITEM: NUMBER OF ATOMS 
4 
ITEM: BOX BOUNDS 
0.000000e+00 2.000000e+00 xlo xhi 
0.000000e+00 2.000000e+00 xlo xhi 
0.000000e+00 2.000000e+00 xlo xhi 
ITEM: ATOMS id type x y z 
0 0 1.083502e+00 6.862132e-01 7.610491e-01 
1 1 1.015520e+00 3.268406e-01 1.262428e+00 
2 2 8.525592e-01 1.076626e+00 1.869131e+00 
3 3 1.436747e+00 1.146623e+00 1.205428e+00 
ITEM: TIMESTEP 
0 
ITEM: NUMBER OF ATOMS 
4 
ITEM: BOX BOUNDS 
0.000000e+00 2.000000e+00 xlo xhi 
0.000000e+00 2.000000e+00 xlo xhi 
0.000000e+00 2.000000e+00 xlo xhi 
ITEM: ATOMS id type x y z 
0 0 1.084869e+00 6.876362e-01 7.721836e-01 
1 1 1.011611e+00 3.342675e-01 1.263973e+00 
2 2 8.444643e-01 1.047559e+00 1.862088e+00 
3 3 1.435696e+00 1.174938e+00 1.177692e+00 
ITEM: TIMESTEP 
0 
ITEM: NUMBER OF ATOMS 
4 
ITEM: BOX BOUNDS 
0.000000e+00 2.000000e+00 xlo xhi 
0.000000e+00 2.000000e+00 xlo xhi 
0.000000e+00 2.000000e+00 xlo xhi 
ITEM: ATOMS id type x y z 
0 0 1.087194e+00 6.946695e-01 7.792230e-01 
1 1 1.007597e+00 3.402749e-01 1.271886e+00 
2 2 8.386673e-01 1.020239e+00 1.851559e+00 
3 3 1.434544e+00 1.202522e+00 1.149837e+00 
ITEM: TIMESTEP 
0 
ITEM: NUMBER OF ATOMS 
4 
ITEM: BOX BOUNDS 
0.000000e+00 2.000000e+00 xlo xhi 
0.000000e+00 2.000000e+00 xlo xhi 
0.000000e+00 2.000000e+00 xlo xhi 
ITEM: ATOMS id type x y z 
0 0 1.090747e+00 7.064028e-01 7.832820e-01 
1 1 1.001980e+00 3.447741e-01 1.284438e+00 
2 2 8.330215e-01 9.933502e-01 1.840264e+00 
3 3 1.434128e+00 1.228554e+00 1.120731e+00 
ITEM: TIMESTEP 
0 
ITEM: NUMBER OF ATOMS 
4 
ITEM: BOX BOUNDS 
0.000000e+00 2.000000e+00 xlo xhi 
0.000000e+00 2.000000e+00 xlo xhi 
0.000000e+00 2.000000e+00 xlo xhi 
ITEM: ATOMS id type x y z 
0 0 1.094829e+00 7.214768e-01 7.833197e-01 
1 1 9.969860e-01 3.480149e-01 1.296373e+00 
2 2 8.257800e-01 9.670614e-01 1.830643e+00 
3 3 1.433624e+00 1.253415e+00 1.092787e+00 
ITEM: TIMESTEP 
0 
ITEM: NUMBER OF ATOMS 
4 
ITEM: BOX BOUNDS 
0.000000e+00 2.000000e+00 xlo xhi 
0.000000e+00 2.000000e+00 xlo xhi 
0.000000e+00 2.000000e+00 xlo xhi 
ITEM: ATOMS id type x y z 
0 0 1.100499e+00 7.382458e-01 7.805531e-01 
1 1 9.919513e-01 3.517316e-01 1.308282e+00 
2 2 8.185486e-01 9.416924e-01 1.822999e+00 
3 3 1.429438e+00 1.274119e+00 1.063667e+00 
ITEM: TIMESTEP 
0 
ITEM: NUMBER OF ATOMS 
4 
ITEM: BOX BOUNDS 
0.000000e+00 2.000000e+00 xlo xhi 
0.000000e+00 2.000000e+00 xlo xhi 
0.000000e+00 2.000000e+00 xlo xhi 
ITEM: ATOMS id type x y z 
0 0 1.106653e+00 7.542188e-01 7.768473e-01 
1 1 9.883294e-01 3.570922e-01 1.321919e+00 
2 2 8.127131e-01 9.180469e-01 1.815143e+00 
3 3 1.422429e+00 1.293449e+00 1.034864e+00 
ITEM: TIMESTEP 
0 
ITEM: NUMBER OF ATOMS 
4 
ITEM: BOX BOUNDS 
0.000000e+00 2.000000e+00 xlo xhi 
0.000000e+00 2.000000e+00 xlo xhi 
0.000000e+00 2.000000e+00 xlo xhi 
ITEM: ATOMS id type x y z 
0 0 1.110612e+00 7.697963e-01 7.715179e-01 
1 1 9.871245e-01 3.653003e-01 1.336256e+00 
2 2 8.052525e-01 8.954927e-01 1.805636e+00 
3 3 1.415489e+00 1.309921e+00 1.011170e+00 
ITEM: TIMESTEP 
0 
ITEM: NUMBER OF ATOMS 
4 
ITEM: BOX BOUNDS 
0.000000e+00 2.000000e+00 xlo xhi 
0.000000e+00 2.000000e+00 xlo xhi 
0.000000e+00 2.000000e+00 xlo xhi 
ITEM: ATOMS id type x y z 
0 0 1.112068e+00 7.845308e-01 7.651253e-01 
1 1 9.864668e-01 3.749157e-01 1.349318e+00 
2 2 7.997483e-01 8.721144e-01 1.793408e+00 
3 3 1.407090e+00 1.322172e+00 9.913169e-01 
ITEM: TIMESTEP 
0 
ITEM: NUMBER OF ATOMS 
4 
ITEM: BOX BOUNDS 
0.000000e+00 2.000000e+00 xlo xhi 
0.000000e+00 2.000000e+00 xlo xhi 
0.000000e+00 2.000000e+00 xlo xhi 
ITEM: ATOMS id type x y z 
0 0 1.111665e+00 7.990806e-01 7.574216e-01 
1 1 9.879373e-01 3.855274e-01 1.361890e+00 
2 2 7.958176e-01 8.499273e-01 1.780211e+00 
3 3 1.395891e+00 1.332521e+00 9.741377e-01 
ITEM: TIMESTEP 
0 
ITEM: NUMBER OF ATOMS 
4 
ITEM: BOX BOUNDS 
0.000000e+00 2.000000e+00 xlo xhi 
0.000000e+00 2.000000e+00 xlo xhi 
0.000000e+00 2.000000e+00 xlo xhi 
ITEM: ATOMS id type x y z 
0 0 1.109613e+00 8.138845e-01 7.492917e-01 
1 1 9.914235e-01 3.986914e-01 1.371078e+00 
2 2 7.932307e-01 8.324669e-01 1.767180e+00 
3 3 1.382842e+00 1.340943e+00 9.593824e-01 
ITEM: TIMESTEP 
0 
ITEM: NUMBER OF ATOMS 
4 
ITEM: BOX BOUNDS 
0.000000e+00 2.000000e+00 xlo xhi 
0.000000e+00 2.000000e+00 xlo xhi 
0.000000e+00 2.000000e+00 xlo xhi 
ITEM: ATOMS id type x y z 
0 0 1.106129e+00 8.261531e-01 7.396766e-01 
1 1 9.966293e-01 4.104342e-01 1.374616e+00 
2 2 7.905605e-01 8.193847e-01 1.757251e+00 
3 3 1.368780e+00 1.347826e+00 9.474064e-01 
ITEM: TIMESTEP 
0 
ITEM: NUMBER OF ATOMS 
4 
ITEM: BOX BOUNDS 
0.000000e+00 2.000000e+00 xlo xhi 
0.000000e+00 2.000000e+00 xlo xhi 
0.000000e+00 2.000000e+00 xlo xhi 
ITEM: ATOMS id type x y z 
0 0 1.098262e+00 8.329665e-01 7.271404e-01 
1 1 1.007647e+00 4.175528e-01 1.369792e+00 
2 2 7.852115e-01 8.118284e-01 1.753311e+00 
3 3 1.355375e+00 1.354655e+00 9.383083e-01 
ITEM: TIMESTEP 
0 
ITEM: NUMBER OF ATOMS 
4 
ITEM: BOX BOUNDS 
0.000000e+00 2.000000e+00 xlo xhi 
0.000000e+00 2.000000e+00 xlo xhi 
0.000000e+00 2.000000e+00 xlo xhi 
ITEM: ATOMS id type x y z 
0 0 1.088589e+00 8.348564e-01 7.118059e-01 
1 1 1.024662e+00 4.198834e-01 1.357473e+00 
2 2 7.765341e-01 8.122411e-01 1.757901e+00 
3 3 1.343313e+00 1.362184e+00 9.328381e-01 
ITEM: TIMESTEP 
0 
ITEM: NUMBER OF ATOMS 
4 
ITEM: BOX BOUNDS 
0.000000e+00 2.000000e+00 xlo xhi 
0.000000e+00 2.000000e+00 xlo xhi 
0.000000e+00 2.000000e+00 xlo xhi 
ITEM: ATOMS id type x y z 
0 0 1.077182e+00 8.338323e-01 6.949416e-01 
1 1 1.044601e+00 4.194279e-01 1.339930e+00 
2 2 7.675030e-01 8.165386e-01 1.764833e+00 
3 3 1.331860e+00 1.370589e+00 9.294496e-01 
ITEM: TIMESTEP 
0 
ITEM: NUMBER OF ATOMS 
4 
ITEM: BOX BOUNDS 
0.000000e+00 2.000000e+00 xlo xhi 
0.000000e+00 2.000000e+00 xlo xhi 
0.000000e+00 2.000000e+00 xlo xhi 
ITEM: ATOMS id type x y z 
0 0 1.062651e+00 8.305976e-01 6.774475e-01 
1 1 1.064044e+00 4.188454e-01 1.318321e+00 
2 2 7.588304e-01 8.212880e-01 1.770103e+00 
3 3 1.321477e+00 1.380143e+00 9.272055e-01 
ITEM: TIMESTEP 
0 
ITEM: NUMBER OF ATOMS 
4 
ITEM: BOX BOUNDS 
0.000000e+00 2.000000e+00 xlo xhi 
0.000000e+00 2.000000e+00 xlo xhi 
0.000000e+00 2.000000e+00 xlo xhi 
ITEM: ATOMS id type x y z 
0 0 1.047561e+00 8.254945e-01 6.605994e-01 
1 1 1.083970e+00 4.184443e-01 1.294256e+00 
2 2 7.522170e-01 8.265019e-01 1.773601e+00 
3 3 1.309894e+00 1.388841e+00 9.274147e-01 
ITEM: TIMESTEP 
0 
ITEM: NUMBER OF ATOMS 
4 
ITEM: BOX BOUNDS 
0.000000e+00 2.000000e+00 xlo xhi 
0.000000e+00 2.000000e+00 xlo xhi 
0.000000e+00 2.000000e+00 xlo xhi 
ITEM: ATOMS id type x y z 
0 0 1.032026e+00 8.225382e-01 6.457266e-01 
1 1 1.105092e+00 4.185238e-01 1.270534e+00 
2 2 7.471521e-01 8.337673e-01 1.774888e+00 
3 3 1.298267e+00 1.394772e+00 9.307681e-01 
ITEM: TIMESTEP 
0 
ITEM: NUMBER OF ATOMS 
4 
ITEM: BOX BOUNDS 
0.000000e+00 2.000000e+00 xlo xhi 
0.000000e+00 2.000000e+00 xlo xhi 
0.000000e+00 2.000000e+00 xlo xhi 
ITEM: ATOMS id type x y z 
0 0 1.015213e+00 8.219779e-01 6.298291e-01 
1 1 1.126618e+00 4.198203e-01 1.245793e+00 
2 2 7.417796e-01 8.439427e-01 1.773262e+00 
3 3 1.285049e+00 1.395439e+00 9.347264e-01 
ITEM: TIMESTEP 
0 
ITEM: NUMBER OF ATOMS 
4 
ITEM: BOX BOUNDS 
0.000000e+00 2.000000e+00 xlo xhi 
0.000000e+00 2.000000e+00 xlo xhi 
0.000000e+00 2.000000e+00 xlo xhi 
ITEM: ATOMS id type x y z 
0 0 9.982365e-01 8.220946e-01 6.139106e-01 
1 1 1.148549e+00 4.230776e-01 1.220296e+00 
2 2 7.373490e-01 8.545050e-01 1.770700e+00 
3 3 1.270562e+00 1.394303e+00 9.376397e-01 
ITEM: TIMESTEP 
0 
ITEM: NUMBER OF ATOMS 
4 
ITEM: BOX BOUNDS 
0.000000e+00 2.000000e+00 xlo xhi 
0.000000e+00 2.000000e+00 xlo xhi 
0.000000e+00 2.000000e+00 xlo xhi 
ITEM: ATOMS id type x y z 
0 0 9.818608e-01 8.214934e-01 5.982923e-01 
1 1 1.169303e+00 4.283864e-01 1.194966e+00 
2 2 7.343624e-01 8.654781e-01 1.768849e+00 
3 3 1.255339e+00 1.391033e+00 9.394833e-01 
ITEM: TIMESTEP 
0 
ITEM: NUMBER OF ATOMS 
4 
ITEM: BOX BOUNDS 
0.000000e+00 2.000000e+00 xlo xhi 
0.000000e+00 2.000000e+00 xlo xhi 
0.000000e+00 2.000000e+00 xlo xhi 
ITEM: ATOMS id type x y z 
0 0 9.658757e-01 8.209583e-01 5.845931e-01 
1 1 1.188850e+00 4.354483e-01 1.169829e+00 
2 2 7.303290e-01 8.754557e-01 1.764303e+00 
3 3 1.239957e+00 1.386244e+00 9.407618e-01 
ITEM: TIMESTEP 
0 
ITEM: NUMBER OF ATOMS 
4 
ITEM: BOX BOUNDS 
0.000000e+00 2.000000e+00 xlo xhi 
0.000000e+00 2.000000e+00 xlo xhi 
0.000000e+00 2.000000e+00 xlo xhi 
ITEM: ATOMS id type x y z 
0 0 9.497879e-01 8.206088e-01 5.740365e-01 
1 1 1.206849e+00 4.453522e-01 1.144824e+00 
2 2 7.266182e-01 8.851862e-01 1.759755e+00 
3 3 1.223399e+00 1.378615e+00 9.407447e-01 
ITEM: TIMESTEP 
0 
ITEM: NUMBER OF ATOMS 
4 
ITEM: BOX BOUNDS 
0.000000e+00 2.000000e+00 xlo xhi 
0.000000e+00 2.000000e+00 xlo xhi 
0.000000e+00 2.000000e+00 xlo xhi 
ITEM: ATOMS id type x y z 
0 0 9.325496e-01 8.213573e-01 5.650572e-01 
1 1 1.224144e+00 4.567580e-01 1.119047e+00 
2 2 7.254739e-01 8.936383e-01 1.753946e+00 
3 3 1.203580e+00 1.368816e+00 9.414011e-01 
ITEM: TIMESTEP 
0 
ITEM: NUMBER OF ATOMS 
4 
ITEM: BOX BOUNDS 
0.000000e+00 2.000000e+00 xlo xhi 
0.000000e+00 2.000000e+00 xlo xhi 
0.000000e+00 2.000000e+00 xlo xhi 
ITEM: ATOMS id type x y z 
0 0 9.161877e-01 8.236656e-01 5.564577e-01 
1 1 1.242346e+00 4.662474e-01 1.093567e+00 
2 2 7.258806e-01 9.012199e-01 1.744644e+00 
3 3 1.183256e+00 1.357173e+00 9.422819e-01 
ITEM: TIMESTEP 
0 
ITEM: NUMBER OF ATOMS 
4 
ITEM: BOX BOUNDS 
0.000000e+00 2.000000e+00 xlo xhi 
0.000000e+00 2.000000e+00 xlo xhi 
0.000000e+00 2.000000e+00 xlo xhi 
ITEM: ATOMS id type x y z 
0 0 9.012930e-01 8.282687e-01 5.480686e-01 
1 1 1.261913e+00 4.761702e-01 1.069801e+00 
2 2 7.259692e-01 9.087138e-01 1.735034e+00 
3 3 1.163723e+00 1.345539e+00 9.450393e-01 
ITEM: TIMESTEP 
0 
ITEM: NUMBER OF ATOMS 
4 
ITEM: BOX BOUNDS 
0.000000e+00 2.000000e+00 xlo xhi 
0.000000e+00 2.000000e+00 xlo xhi 
0.000000e+00 2.000000e+00 xlo xhi 
ITEM: ATOMS id type x y z 
0 0 8.885514e-01 8.341261e-01 5.408275e-01 
1 1 1.281650e+00 4.896346e-01 1.047125e+00 
2 2 7.250950e-01 9.159407e-01 1.725811e+00 
3 3 1.142944e+00 1.333253e+00 9.480154e-01 
ITEM: TIMESTEP 
0 
ITEM: NUMBER OF ATOMS 
4 
ITEM: BOX BOUNDS 
0.000000e+00 2.000000e+00 xlo xhi 
0.000000e+00 2.000000e+00 xlo xhi 
0.000000e+00 2.000000e+00 xlo xhi 
ITEM: ATOMS id type x y z 
0 0 8.779510e-01 8.383273e-01 5.328691e-01 
1 1 1.298493e+00 5.037493e-01 1.025572e+00 
2 2 7.252652e-01 9.224600e-01 1.717626e+00 
3 3 1.122026e+00 1.320651e+00 9.492507e-01 
ITEM: TIMESTEP 
0 
ITEM: NUMBER OF ATOMS 
4 
ITEM: BOX BOUNDS 
0.000000e+00 2.000000e+00 xlo xhi 
0.000000e+00 2.000000e+00 xlo xhi 
0.000000e+00 2.000000e+00 xlo xhi 
ITEM: ATOMS id type x y z 
0 0 8.686935e-01 8.409620e-01 5.241373e-01 
1 1 1.316147e+00 5.189880e-01 1.004149e+00 
2 2 7.258114e-01 9.294526e-01 1.711194e+00 
3 3 1.100677e+00 1.306247e+00 9.510312e-01 
ITEM: TIMESTEP 
0 
ITEM: NUMBER OF ATOMS 
4 
ITEM: BOX BOUNDS 
0.000000e+00 2.000000e+00 xlo xhi 
0.000000e+00 2.000000e+00 xlo xhi 
0.000000e+00 2.000000e+00 xlo xhi 
ITEM: ATOMS id type x y z 
0 0 8.589933e-01 8.423384e-01 5.154601e-01 
1 1 1.333593e+00 5.336479e-01 9.812962e-01 
2 2 7.264833e-01 9.376548e-01 1.705429e+00 
3 3 1.080587e+00 1.290862e+00 9.536499e-01 
ITEM: TIMESTEP 
0 
ITEM: NUMBER OF ATOMS 
4 
ITEM: BOX BOUNDS 
0.000000e+00 2.000000e+00 xlo xhi 
0.000000e+00 2.000000e+00 xlo xhi 
0.000000e+00 2.000000e+00 xlo xhi 
ITEM: ATOMS id type x y z 
0 0 8.501952e-01 8.427374e-01 5.061126e-01 
1 1 1.349889e+00 5.498114e-01 9.579234e-01 
2 2 7.281533e-01 9.457808e-01 1.698846e+00 
3 3 1.061521e+00 1.273627e+00 9.556483e-01 
ITEM: TIMESTEP 
0 
ITEM: NUMBER OF ATOMS 
4 
ITEM: BOX BOUNDS 
0.000000e+00 2.000000e+00 xlo xhi 
0.000000e+00 2.000000e+00 xlo xhi 
0.000000e+00 2.000000e+00 xlo xhi 
ITEM: ATOMS id type x y z 
0 0 8.432274e-01 8.437536e-01 4.951115e-01 
1 1 1.362713e+00 5.699156e-01 9.352584e-01 
2 2 7.304431e-01 9.523932e-01 1.690280e+00 
3 3 1.044913e+00 1.256405e+00 9.575856e-01 
ITEM: TIMESTEP 
0 
ITEM: NUMBER OF ATOMS 
4 
ITEM: BOX BOUNDS 
0.000000e+00 2.000000e+00 xlo xhi 
0.000000e+00 2.000000e+00 xlo xhi 
0.000000e+00 2.000000e+00 xlo xhi 
ITEM: ATOMS id type x y z 
0 0 8.370940e-01 8.439938e-01 4.841424e-01 
1 1 1.372907e+00 5.918750e-01 9.122289e-01 
2 2 7.343101e-01 9.578693e-01 1.681945e+00 
3 3 1.031475e+00 1.240249e+00 9.610340e-01 
ITEM: TIMESTEP 
0 
ITEM: NUMBER OF ATOMS 
4 
ITEM: BOX BOUNDS 
0.000000e+00 2.000000e+00 xlo xhi 
0.000000e+00 2.000000e+00 xlo xhi 
0.000000e+00 2.000000e+00 xlo xhi 
ITEM: ATOMS id type x y z 
0 0 8.316047e-01 8.428402e-01 4.722092e-01 
1 1 1.378296e+00 6.145146e-01 8.892319e-01 
2 2 7.388134e-01 9.618037e-01 1.671996e+00 
3 3 1.019764e+00 1.225060e+00 9.658719e-01 
ITEM: TIMESTEP 
0 
ITEM: NUMBER OF ATOMS 
4 
ITEM: BOX BOUNDS 
0.000000e+00 2.000000e+00 xlo xhi 
0.000000e+00 2.000000e+00 xlo xhi 
0.000000e+00 2.000000e+00 xlo xhi 
ITEM: ATOMS id type x y z 
0 0 8.256820e-01 8.405998e-01 4.602238e-01 
1 1 1.380296e+00 6.374834e-01 8.669573e-01 
2 2 7.448988e-01 9.636063e-01 1.662272e+00 
3 3 1.008074e+00 1.210687e+00 9.719446e-01 
ITEM: TIMESTEP 
0 
ITEM: NUMBER OF ATOMS 
4 
ITEM: BOX BOUNDS 
0.000000e+00 2.000000e+00 xlo xhi 
0.000000e+00 2.000000e+00 xlo xhi 
0.000000e+00 2.000000e+00 xlo xhi 
ITEM: ATOMS id type x y z 
0 0 8.201856e-01 8.379032e-01 4.482585e-01 
1 1 1.379047e+00 6.606405e-01 8.460478e-01 
2 2 7.532535e-01 9.665106e-01 1.651829e+00 
3 3 9.955075e-01 1.198222e+00 9.783686e-01 
ITEM: TIMESTEP 
0 
ITEM: NUMBER OF ATOMS 
4 
ITEM: BOX BOUNDS 
0.000000e+00 2.000000e+00 xlo xhi 
0.000000e+00 2.000000e+00 xlo xhi 
0.000000e+00 2.000000e+00 xlo xhi 
ITEM: ATOMS id type x y z 
0 0 8.146865e-01 8.365232e-01 4.373817e-01 
1 1 1.375202e+00 6.836759e-01 8.254295e-01 
2 2 7.631012e-01 9.691602e-01 1.639244e+00 
3 3 9.816845e-01 1.186651e+00 9.862364e-01 
ITEM: TIMESTEP 
0 
ITEM: NUMBER OF ATOMS 
4 
ITEM: BOX BOUNDS 
0.000000e+00 2.000000e+00 xlo xhi 
0.000000e+00 2.000000e+00 xlo xhi 
0.000000e+00 2.000000e+00 xlo xhi 
ITEM: ATOMS id type x y z 
0 0 8.084502e-01 8.359641e-01 4.277594e-01 
1 1 1.368121e+00 7.047951e-01 8.036413e-01 
2 2 7.738290e-01 9.723483e-01 1.624357e+00 
3 3 9.670208e-01 1.174864e+00 9.950494e-01 
ITEM: TIMESTEP 
0 
ITEM: NUMBER OF ATOMS 
4 
ITEM: BOX BOUNDS 
0.000000e+00 2.000000e+00 xlo xhi 
0.000000e+00 2.000000e+00 xlo xhi 
0.000000e+00 2.000000e+00 xlo xhi 
ITEM: ATOMS id type x y z 
0 0 8.021656e-01 8.341275e-01 4.201977e-01 
1 1 1.358511e+00 7.248592e-01 7.826652e-01 
2 2 7.848604e-01 9.754701e-01 1.608997e+00 
3 3 9.513768e-01 1.166062e+00 1.005374e+00 
ITEM: TIMESTEP 
0 
ITEM: NUMBER OF ATOMS 
4 
ITEM: BOX BOUNDS 
0.000000e+00 2.000000e+00 xlo xhi 
0.000000e+00 2.000000e+00 xlo xhi 
0.000000e+00 2.000000e+00 xlo xhi 
ITEM: ATOMS id type x y z 
0 0 7.959626e-01 8.319359e-01 4.116354e-01 
1 1 1.350900e+00 7.458348e-01 7.630233e-01 
2 2 7.959866e-01 9.782336e-01 1.593013e+00 
3 3 9.356854e-01 1.158299e+00 1.015779e+00 
ITEM: TIMESTEP 
0 
ITEM: NUMBER OF ATOMS 
4 
ITEM: BOX BOUNDS 
0.000000e+00 2.000000e+00 xlo xhi 
0.000000e+00 2.000000e+00 xlo xhi 
0.000000e+00 2.000000e+00 xlo xhi 
ITEM: ATOMS id type x y z 
0 0 7.873732e-01 8.293791e-01 4.024659e-01 
1 1 1.345833e+00 7.677258e-01 7.425141e-01 
2 2 8.071470e-01 9.791775e-01 1.580494e+00 
3 3 9.201137e-01 1.152842e+00 1.021334e+00 
ITEM: TIMESTEP 
0 
ITEM: NUMBER OF ATOMS 
4 
ITEM: BOX BOUNDS 
0.000000e+00 2.000000e+00 xlo xhi 
0.000000e+00 2.000000e+00 xlo xhi 
0.000000e+00 2.000000e+00 xlo xhi 
ITEM: ATOMS id type x y z 
0 0 7.789393e-01 8.273296e-01 3.926154e-01 
1 1 1.341124e+00 7.867592e-01 7.239879e-01 
2 2 8.163440e-01 9.775177e-01 1.575083e+00 
3 3 9.063344e-01 1.151057e+00 1.018651e+00 
ITEM: TIMESTEP 
0 
ITEM: NUMBER OF ATOMS 
4 
ITEM: BOX BOUNDS 
0.000000e+00 2.000000e+00 xlo xhi 
0.000000e+00 2.000000e+00 xlo xhi 
0.000000e+00 2.000000e+00 xlo xhi 
ITEM: ATOMS id type x y z 
0 0 7.689097e-01 8.248906e-01 3.823667e-01 
1 1 1.338561e+00 8.054917e-01 7.067183e-01 
2 2 8.249088e-01 9.728323e-01 1.578659e+00 
3 3 8.920318e-01 1.151330e+00 1.006974e+00 
ITEM: TIMESTEP 
0 
ITEM: NUMBER OF ATOMS 
4 
ITEM: BOX BOUNDS 
0.000000e+00 2.000000e+00 xlo xhi 
0.000000e+00 2.000000e+00 xlo xhi 
0.000000e+00 2.000000e+00 xlo xhi 
ITEM: ATOMS id type x y z 
0 0 7.551625e-01 8.241494e-01 3.711881e-01 
1 1 1.339711e+00 8.237036e-01 6.907283e-01 
2 2 8.332256e-01 9.684972e-01 1.586558e+00 
3 3 8.771735e-01 1.152977e+00 9.906789e-01 
ITEM: TIMESTEP 
0 
ITEM: NUMBER OF ATOMS 
4 
ITEM: BOX BOUNDS 
0.000000e+00 2.000000e+00 xlo xhi 
0.000000e+00 2.000000e+00 xlo xhi 
0.000000e+00 2.000000e+00 xlo xhi 
ITEM: ATOMS id type x y z 
0 0 7.397306e-01 8.245515e-01 3.570419e-01 
1 1 1.342661e+00 8.396814e-01 6.749307e-01 
2 2 8.435725e-01 9.646621e-01 1.595780e+00 
3 3 8.623116e-01 1.156757e+00 9.729828e-01 
ITEM: TIMESTEP 
0 
ITEM: NUMBER OF ATOMS 
4 
ITEM: BOX BOUNDS 
0.000000e+00 2.000000e+00 xlo xhi 
0.000000e+00 2.000000e+00 xlo xhi 
0.000000e+00 2.000000e+00 xlo xhi 
ITEM: ATOMS id type x y z 
0 0 7.261136e-01 8.267173e-01 3.430967e-01 
1 1 1.345914e+00 8.566278e-01 6.612275e-01 