ITEM: TIMESTEP 
0 
ITEM: NUMBER OF ATOMS 
256 
ITEM: BOX BOUNDS 
0.000000e+00 8.000000e+00 xlo xhi 
0.000000e+00 8.000000e+00 xlo xhi 
0.000000e+00 8.000000e+00 xlo xhi 
ITEM: ATOMS id type x y z 
0 0 2.526553e+00 3.622908e+00 2.135334e+00 
1 1 2.819867e+00 5.415955e-01 5.012118e+00 
2 2 1.898667e+00 1.883753e+00 6.194978e+00 
3 3 6.141611e+00 6.907216e+00 6.221110e+00 
4 4 1.741019e+00 4.962157e+00 1.130384e+00 
5 5 2.183877e+00 4.391813e+00 7.720353e+00 
6 6 7.506970e+00 3.777006e-01 1.806686e-02 
7 7 6.263228e+00 4.844930e+00 8.962312e-01 
8 8 6.526723e+00 6.835610e+00 5.018705e+00 
9 9 4.348598e+00 4.716909e+00 1.854598e+00 
10 10 6.545001e+00 1.967069e+00 6.099492e-01 
11 11 4.098033e+00 4.038306e-01 2.053825e+00 
12 12 2.650068e+00 3.138889e+00 3.376808e+00 
13 13 1.074476e+00 4.055283e+00 6.472321e+00 
14 14 6.920730e-01 6.594355e+00 2.086148e+00 
15 15 7.712751e+00 5.190328e+00 1.909853e+00 
16 16 7.638707e-01 5.559653e+00 3.505673e+00 
17 17 2.471970e+00 5.419822e-01 3.350434e+00 
18 18 7.513531e+00 1.444077e+00 1.556739e+00 
19 19 7.005607e+00 2.657661e+00 5.247405e+00 
20 20 5.113043e-01 9.954613e-01 3.320434e+00 
21 21 5.463208e+00 8.045658e-01 7.146494e+00 
22 22 1.061827e-02 4.844540e+00 1.691250e-01 
23 23 3.757347e-01 1.133013e+00 2.016781e+00 
24 24 6.814234e+00 3.824124e+00 7.922916e+00 
25 25 5.159826e+00 5.137948e+00 6.374929e+00 
26 26 4.717454e+00 6.802456e+00 2.529889e+00 
27 27 9.184287e-01 7.840462e+00 6.408639e+00 
28 28 7.987437e+00 4.131386e+00 2.763614e+00 
29 29 2.514671e+00 3.204418e+00 5.216378e+00 
30 30 5.416139e+00 4.249761e+00 1.403269e+00 
31 31 8.655091e-01 2.334690e+00 6.822243e+00 
32 32 6.517998e+00 7.669113e+00 7.555704e+00 
33 33 6.428642e+00 3.709767e-01 5.013757e+00 
34 34 1.685940e+00 7.248805e+00 7.598346e+00 
35 35 7.476708e-01 3.521235e+00 1.212225e+00 
36 36 5.313850e+00 1.916800e+00 1.735007e+00 
37 37 7.700325e-01 6.626617e+00 4.106693e+00 
38 38 7.190454e+00 6.489633e+00 7.431268e+00 
39 39 3.936973e+00 5.958551e+00 7.372766e+00 
40 40 6.311453e+00 2.761886e+00 4.341978e+00 
41 41 7.930288e-01 2.095887e+00 4.471666e+00 
42 42 7.455282e+00 5.778348e+00 5.067712e+00 
43 43 5.803586e+00 6.404128e+00 4.578258e-01 
44 44 9.694135e-01 6.793487e+00 6.637593e-01 
45 45 2.266216e+00 5.134374e+00 5.159921e+00 
46 46 4.951338e+00 2.962368e+00 1.488490e+00 
47 47 2.602804e+00 4.746320e+00 3.124882e+00 
48 48 1.569798e+00 2.345832e+00 2.306385e+00 
49 49 9.701061e-01 5.910508e+00 6.633951e+00 
50 50 1.020172e-01 7.304745e+00 3.798083e+00 
51 51 4.525232e+00 6.751482e+00 3.582893e+00 
52 52 3.887832e+00 5.343243e-01 3.663812e+00 
53 53 1.900063e+00 7.712342e+00 3.652440e+00 
54 54 4.391720e+00 2.223595e+00 2.995878e+00 
55 55 5.926005e+00 3.451805e+00 6.223614e+00 
56 56 5.851378e+00 3.614346e-01 1.895586e+00 
57 57 6.946797e+00 5.550985e+00 3.191456e+00 
58 58 7.366385e+00 2.231291e+00 8.050886e-03 
59 59 2.610327e+00 6.784184e+00 5.930588e-01 
60 60 6.981286e+00 4.365133e+00 5.383060e+00 
61 61 3.787603e+00 3.095249e+00 4.960722e+00 
62 62 6.332345e+00 2.934243e+00 1.526430e-01 
63 63 5.721802e+00 5.501131e+00 7.310343e+00 
64 64 5.747864e+00 4.028021e-01 7.236390e-01 
65 65 3.121294e+00 3.085556e+00 1.298834e+00 
66 66 7.115307e+00 4.009192e+00 3.493497e+00 
67 67 2.826561e+00 2.410714e+00 6.595538e+00 
68 68 3.022187e+00 7.463635e+00 6.765270e+00 
69 69 5.792930e+00 5.992136e+00 3.435667e+00 
70 70 6.000837e+00 4.609335e+00 4.668935e+00 
71 71 4.139234e+00 1.535853e+00 6.917993e+00 
72 72 3.270648e+00 5.578310e+00 2.484874e-01 
73 73 3.976235e+00 1.039823e-01 7.587010e+00 
74 74 1.499427e+00 7.572987e+00 5.027958e+00 
75 75 7.140893e+00 3.246701e+00 1.270622e+00 
76 76 3.723935e+00 6.464561e+00 5.814103e+00 
77 77 1.311972e+00 2.153735e+00 6.467423e-01 
78 78 7.567817e+00 6.726670e+00 1.088052e+00 
79 79 4.563284e+00 3.567217e+00 4.506068e+00 
80 80 4.960683e+00 7.830056e+00 1.717353e+00 
81 81 3.494659e+00 6.936491e+00 4.026527e+00 
82 82 3.425054e+00 4.483100e+00 7.362224e+00 
83 83 7.565302e+00 7.841629e+00 6.743358e+00 
84 84 5.198195e+00 5.279327e-02 3.840729e+00 
85 85 7.106976e+00 1.090161e+00 4.624022e+00 
86 86 4.987899e+00 4.167561e+00 7.771275e+00 
87 87 3.611050e+00 4.182035e+00 3.677308e+00 
88 88 3.018004e+00 7.491488e+00 2.290502e+00 
89 89 7.256508e+00 3.664580e-01 1.464305e+00 
90 90 4.468140e+00 4.529594e+00 5.242720e+00 
91 91 4.387668e+00 3.637690e+00 6.421690e+00 
92 92 3.079579e+00 5.945793e+00 2.263554e+00 
93 93 2.558779e+00 4.843758e+00 6.734301e+00 
94 94 6.794109e+00 4.931908e+00 7.214344e+00 
95 95 1.231724e+00 1.372567e+00 5.050525e+00 
96 96 3.847503e+00 1.696963e+00 8.957260e-02 
97 97 7.985205e+00 3.535841e+00 3.349595e-01 
98 98 5.163301e+00 1.624238e+00 4.148698e-01 
99 99 2.549376e+00 9.480800e-01 3.095768e-01 
100 100 3.706821e+00 5.440569e+00 4.947840e+00 
101 101 3.998907e+00 2.071532e+00 4.042702e+00 
102 102 1.659255e+00 1.849454e+00 7.216659e+00 
103 103 4.354894e+00 7.208883e+00 6.127728e+00 
104 104 5.310974e+00 1.996499e+00 5.723814e+00 
105 105 2.631036e+00 5.812547e+00 6.026709e+00 
106 106 5.865465e+00 2.079165e+00 3.054438e+00 
107 107 4.982009e+00 6.718658e+00 7.159847e+00 
108 108 1.498924e+00 2.392055e+00 3.530184e+00 
109 109 3.398058e+00 2.132475e+00 5.166743e+00 
110 110 2.167826e+00 1.380240e+00 2.391979e+00 
111 111 7.996953e+00 2.987160e+00 5.927613e+00 
112 112 5.679361e-01 4.336492e+00 1.770871e+00 
113 113 7.109020e+00 7.216188e+00 3.930965e+00 
114 114 9.020759e-01 6.657540e+00 5.758078e+00 
115 115 1.522006e+00 3.126466e+00 6.204868e+00 
116 116 5.167280e+00 7.598941e+00 4.951641e+00 
117 117 2.810350e+00 5.506424e+00 3.819681e+00 
118 118 1.218032e+00 7.958089e+00 1.015635e+00 
119 119 1.743381e+00 2.385673e+00 4.925273e+00 
120 120 2.087990e+00 5.911428e+00 3.058851e+00 
121 121 6.639922e+00 2.285461e+00 6.159827e+00 
122 122 8.392666e-01 5.399034e+00 5.601068e+00 
123 123 2.255269e+00 4.099724e+00 4.517822e+00 
124 124 2.952223e-01 4.125156e+00 4.624634e+00 
125 125 7.085064e+00 1.243407e+00 3.350574e+00 
126 126 3.814676e+00 1.153113e+00 5.991985e+00 
127 127 3.473922e+00 3.311258e-01 4.854003e-01 
128 128 3.485291e+00 7.503532e+00 5.174604e+00 
129 129 4.205755e+00 5.696007e+00 2.797441e+00 
130 130 3.318895e+00 6.220841e+00 1.255312e+00 
131 131 4.699901e+00 3.857449e+00 3.365736e+00 
132 132 5.283142e+00 7.125554e+00 1.034893e+00 
133 133 7.155747e-01 5.422571e+00 6.302645e-01 
134 134 7.587589e+00 2.794456e+00 2.267981e+00 
135 135 5.979539e+00 7.434449e+00 3.626795e+00 
136 136 7.573148e+00 6.570607e+00 2.156652e+00 
137 137 1.891111e+00 6.204570e+00 7.417861e-02 
138 138 6.176284e+00 5.378773e+00 6.124621e+00 
139 139 7.384455e+00 7.859031e+00 3.069841e+00 
140 140 5.182921e+00 8.399275e-01 5.767939e+00 
141 141 5.364866e+00 4.842391e+00 3.340200e+00 
142 142 4.976748e+00 2.698677e+00 4.194019e+00 
143 143 4.163848e+00 3.330579e+00 1.372603e-01 
144 144 9.608912e-01 7.233705e+00 3.012779e+00 
145 145 7.768506e+00 2.306817e+00 4.484327e+00 
146 146 7.726834e+00 1.466352e+00 6.014463e+00 
147 147 3.109309e+00 1.552809e+00 4.356068e+00 
148 148 7.721381e-01 1.884430e+00 2.736726e+00 
149 149 2.770788e+00 6.046081e+00 4.772250e+00 
150 150 6.268289e+00 4.413275e-01 6.618280e+00 
151 151 1.724125e+00 7.839448e-01 6.512954e+00 
152 152 3.512006e-01 8.447119e-01 6.875363e+00 
153 153 1.699540e+00 7.937697e-02 2.401899e+00 
154 154 7.473604e+00 5.177835e+00 4.172857e+00 
155 155 3.813139e-01 1.033149e+00 4.532487e+00 
156 156 5.768951e-01 2.617505e+00 2.035661e+00 
157 157 1.182485e+00 8.088433e-01 1.884563e-01 
158 158 5.645772e+00 1.012752e+00 3.038731e+00 
159 159 3.010810e+00 3.698478e+00 4.876661e-01 
160 160 5.099407e-03 7.621924e+00 5.781952e+00 
161 161 1.277584e+00 4.700018e+00 3.243975e+00 
162 162 6.719604e+00 4.336164e+00 2.525972e+00 
163 163 6.161530e+00 7.356561e+00 1.548229e+00 
164 164 5.376287e+00 5.975101e+00 5.433736e+00 
165 165 6.288169e+00 2.776935e+00 2.173442e+00 
166 166 4.773316e+00 5.264352e+00 7.561590e+00 
167 167 9.394294e-02 4.618906e+00 6.652620e+00 
168 168 7.023123e+00 4.219076e+00 1.514264e+00 
169 169 2.903911e+00 7.603017e+00 3.547226e+00 
170 170 7.733088e+00 2.959622e+00 7.393439e+00 
171 171 2.585759e+00 2.428148e+00 4.372072e+00 
172 172 1.251721e+00 3.401688e+00 2.451020e+00 
173 173 6.622162e-01 8.474392e-01 1.095626e+00 
174 174 2.675498e+00 2.910951e+00 7.754954e+00 
175 175 3.314179e+00 3.873121e+00 6.492135e+00 
176 176 1.602739e+00 7.000220e+00 1.425468e+00 
177 177 3.869989e+00 5.084220e+00 6.073920e+00 
178 178 5.974204e+00 1.306245e+00 4.185066e+00 
179 179 3.275212e+00 1.879810e+00 2.495258e+00 
180 180 5.853204e+00 3.110763e+00 7.269009e+00 
181 181 7.840568e+00 3.218062e+00 4.932339e+00 
182 182 1.740652e+00 3.115414e+00 2.716349e-01 
183 183 4.660392e+00 6.679978e+00 4.717537e+00 
184 184 4.683024e+00 6.010503e+00 1.000637e+00 
185 185 5.515101e+00 3.552335e+00 5.170417e+00 
186 186 3.929345e+00 7.051392e+00 2.275820e-01 
187 187 4.795562e+00 2.873999e+00 5.826565e+00 
188 188 6.432591e+00 6.155711e+00 1.742690e+00 
189 189 5.214221e+00 5.987333e+00 2.181020e+00 
190 190 3.737872e+00 3.787014e+00 2.158908e+00 
191 191 1.250138e+00 5.045315e+00 7.347698e+00 
192 192 1.266801e+00 4.241355e+00 5.177613e+00 
193 193 7.185311e+00 3.981752e+00 7.002542e+00 
194 194 6.464717e-02 1.187077e-01 2.064309e+00 
195 195 2.791589e+00 5.597810e-01 6.722011e+00 
196 196 1.159230e+00 3.782151e-01 3.905572e+00 
197 197 3.821457e+00 1.767169e+00 1.527424e+00 
198 198 7.685261e+00 6.649329e+00 6.444303e+00 
199 199 7.093393e+00 5.528526e+00 9.202996e-01 
200 200 6.111319e+00 2.151722e+00 7.096780e+00 
201 201 9.286082e-01 3.479279e+00 4.189137e+00 
202 202 3.885617e-01 7.335905e+00 7.913656e+00 
203 203 3.974958e+00 4.758774e+00 3.213568e-01 
204 204 7.227151e+00 5.536689e+00 6.467951e+00 
205 205 7.766066e+00 6.437990e+00 3.360035e+00 
206 206 5.065365e+00 7.883619e+00 6.681905e+00 
207 207 1.811385e+00 3.762415e+00 1.080430e+00 
208 208 1.108104e-01 2.725206e+00 3.295452e+00 
209 209 1.457393e-01 7.755334e+00 1.021748e+00 
210 210 2.051472e+00 2.780315e+00 1.370353e+00 
211 211 4.396602e+00 1.842809e+00 5.195620e+00 
212 212 5.749197e+00 4.499061e+00 7.198432e+00 
213 213 5.623656e+00 3.610123e+00 2.504341e+00 
214 214 1.137149e+00 4.885195e+00 4.298239e+00 
215 215 6.117637e+00 3.530414e+00 3.378870e+00 
216 216 7.854060e+00 5.945185e+00 3.294668e-01 
217 217 7.955723e-01 2.375418e+00 5.796586e+00 
218 218 4.729167e+00 2.277195e-01 5.289912e-01 
219 219 2.063432e+00 5.295087e+00 2.253792e+00 
220 220 1.879745e+00 5.780720e+00 4.300945e+00 
221 221 6.332660e-02 5.773233e+00 7.343442e+00 
222 222 1.964283e+00 6.672963e+00 4.920825e+00 
223 223 2.810840e+00 6.448188e+00 7.460939e+00 
224 224 6.106442e-01 4.996559e-01 5.720605e+00 
225 225 6.234184e+00 5.202530e+00 2.196869e+00 
226 226 3.608241e+00 2.904924e+00 5.941760e+00 
227 227 5.162147e+00 4.845528e+00 5.103614e-01 
228 228 3.277846e+00 9.813199e-01 7.590531e+00 
229 229 3.421462e+00 4.430551e+00 5.325529e+00 
230 230 2.716914e+00 1.132176e-02 5.871129e+00 
231 231 5.424824e+00 5.455142e+00 4.235574e+00 
232 232 6.366527e+00 1.043878e+00 2.819266e-02 
233 233 4.864642e+00 1.576439e+00 3.898116e+00 
234 234 6.517136e+00 6.883454e+00 2.662115e+00 
235 235 3.692506e+00 4.268166e+00 1.199773e+00 
236 236 2.637877e+00 1.874864e+00 3.506290e+00 
237 237 4.959125e+00 2.098849e+00 7.095553e+00 
238 238 2.262430e+00 8.694546e-01 1.317070e+00 
239 239 7.364893e+00 5.087963e-01 5.655513e+00 
240 240 1.791918e+00 5.130203e-01 5.377980e+00 
241 241 7.494741e+00 2.343673e+00 1.002515e+00 
242 242 4.449544e+00 5.542848e-01 4.969729e+00 
243 243 6.196603e+00 1.462202e+00 2.301135e+00 
244 244 3.242231e+00 5.081688e+00 1.602844e+00 
245 245 7.775299e+00 7.910203e+00 4.787509e+00 
246 246 3.725469e+00 6.732274e+00 2.367369e+00 
247 247 1.917396e+00 7.354128e+00 6.302896e+00 
248 248 5.526556e+00 7.675626e+00 2.588095e+00 
249 249 1.091979e+00 3.733602e+00 7.544350e+00 
250 250 6.393526e+00 7.583326e+00 5.664970e-01 
251 251 2.654990e+00 2.227997e+00 5.206564e-01 
252 252 2.456390e+00 7.526918e+00 4.730867e+00 
253 253 1.830871e+00 6.836299e+00 2.449024e+00 
254 254 7.961565e+00 1.381726e+00 5.931492e-01 
255 255 2.394073e+00 6.630089e+00 3.712847e+00 
ITEM: TIMESTEP 
0 
ITEM: NUMBER OF ATOMS 
256 
ITEM: BOX BOUNDS 
0.000000e+00 8.000000e+00 xlo xhi 
0.000000e+00 8.000000e+00 xlo xhi 
0.000000e+00 8.000000e+00 xlo xhi 
ITEM: ATOMS id type x y z 
0 0 2.527895e+00 3.621598e+00 2.134844e+00 
1 1 2.819637e+00 5.429438e-01 5.013393e+00 
2 2 1.900225e+00 1.884263e+00 6.194963e+00 
3 3 6.142616e+00 6.906316e+00 6.221308e+00 
4 4 1.742527e+00 4.962291e+00 1.130965e+00 
5 5 2.183132e+00 4.391257e+00 7.719445e+00 
6 6 7.507550e+00 3.769857e-01 1.860029e-02 
7 7 6.261916e+00 4.845416e+00 8.959088e-01 
8 8 6.528009e+00 6.834882e+00 5.019077e+00 
9 9 4.350283e+00 4.716208e+00 1.856012e+00 
10 10 6.544607e+00 1.968171e+00 6.108414e-01 
11 11 4.098916e+00 4.042542e-01 2.053741e+00 
12 12 2.650363e+00 3.138638e+00 3.375049e+00 
13 13 1.072954e+00 4.054317e+00 6.473411e+00 
14 14 6.906218e-01 6.592932e+00 2.087134e+00 
15 15 7.711691e+00 5.189316e+00 1.910789e+00 
16 16 7.636936e-01 5.558842e+00 3.506140e+00 
17 17 2.472815e+00 5.425696e-01 3.350621e+00 
18 18 7.513767e+00 1.442603e+00 1.557957e+00 
19 19 7.004178e+00 2.658685e+00 5.246907e+00 
20 20 5.125450e-01 9.940444e-01 3.319973e+00 
21 21 5.463705e+00 8.033320e-01 7.145719e+00 
22 22 1.092210e-02 4.846027e+00 1.673369e-01 
23 23 3.762363e-01 1.132108e+00 2.017703e+00 
24 24 6.814763e+00 3.823842e+00 7.923800e+00 
25 25 5.159570e+00 5.138462e+00 6.373249e+00 
26 26 4.716414e+00 6.803199e+00 2.529212e+00 
27 27 9.169883e-01 7.839588e+00 6.409243e+00 
28 28 7.986420e+00 4.131950e+00 2.764437e+00 
29 29 2.516415e+00 3.205367e+00 5.217266e+00 
30 30 5.416364e+00 4.248748e+00 1.404846e+00 
31 31 8.649632e-01 2.336310e+00 6.821257e+00 
32 32 6.517195e+00 7.667803e+00 7.556267e+00 
33 33 6.427170e+00 3.713693e-01 5.013286e+00 
34 34 1.684616e+00 7.248856e+00 7.597555e+00 
35 35 7.490933e-01 3.520966e+00 1.212105e+00 
36 36 5.315254e+00 1.916920e+00 1.736284e+00 
37 37 7.702748e-01 6.626241e+00 4.106709e+00 
38 38 7.190663e+00 6.489236e+00 7.432909e+00 
39 39 3.938352e+00 5.958461e+00 7.373518e+00 
40 40 6.310057e+00 2.760850e+00 4.341444e+00 
41 41 7.939130e-01 2.095897e+00 4.470695e+00 
42 42 7.454525e+00 5.776949e+00 5.068365e+00 
43 43 5.805229e+00 6.404248e+00 4.578001e-01 
44 44 9.708081e-01 6.793110e+00 6.635945e-01 
45 45 2.265047e+00 5.133412e+00 5.160943e+00 
46 46 4.952671e+00 2.963862e+00 1.489374e+00 
47 47 2.604044e+00 4.746756e+00 3.125929e+00 
48 48 1.570379e+00 2.345478e+00 2.305712e+00 
49 49 9.685683e-01 5.909623e+00 6.633065e+00 
50 50 1.038059e-01 7.304672e+00 3.796409e+00 
51 51 4.525038e+00 6.752967e+00 3.584037e+00 
52 52 3.887717e+00 5.345719e-01 3.664457e+00 
53 53 1.900767e+00 7.711555e+00 3.651785e+00 
54 54 4.390652e+00 2.221912e+00 2.996602e+00 
55 55 5.925242e+00 3.452630e+00 6.223417e+00 
56 56 5.852193e+00 3.598108e-01 1.894690e+00 
57 57 6.947035e+00 5.550963e+00 3.191126e+00 
58 58 7.367234e+00 2.230275e+00 8.614253e-03 
59 59 2.611974e+00 6.785505e+00 5.939273e-01 
60 60 6.980846e+00 4.363355e+00 5.382678e+00 
61 61 3.787141e+00 3.094990e+00 4.961223e+00 
62 62 6.333425e+00 2.935142e+00 1.524272e-01 
63 63 5.721377e+00 5.500048e+00 7.311504e+00 
64 64 5.747346e+00 4.011971e-01 7.241924e-01 
65 65 3.122289e+00 3.085662e+00 1.300067e+00 
66 66 7.114977e+00 4.009111e+00 3.493617e+00 
67 67 2.827979e+00 2.409996e+00 6.596701e+00 
68 68 3.021824e+00 7.462164e+00 6.764782e+00 
69 69 5.792340e+00 5.993096e+00 3.436421e+00 
70 70 6.000613e+00 4.608487e+00 4.670363e+00 
71 71 4.138723e+00 1.534291e+00 6.919453e+00 
72 72 3.270361e+00 5.577193e+00 2.481173e-01 
73 73 3.975008e+00 1.026010e-01 7.585461e+00 
74 74 1.498032e+00 7.571564e+00 5.028908e+00 
75 75 7.139699e+00 3.245531e+00 1.271407e+00 
76 76 3.723415e+00 6.466292e+00 5.814087e+00 
77 77 1.311162e+00 2.154274e+00 6.472452e-01 
78 78 7.568163e+00 6.727011e+00 1.086758e+00 
79 79 4.564716e+00 3.566596e+00 4.504499e+00 
80 80 4.959691e+00 7.829294e+00 1.716335e+00 
81 81 3.494486e+00 6.938098e+00 4.028056e+00 
82 82 3.426160e+00 4.482937e+00 7.363218e+00 
83 83 7.563933e+00 7.843265e+00 6.741723e+00 
84 84 5.196611e+00 5.227873e-02 3.839214e+00 
85 85 7.106588e+00 1.091177e+00 4.624732e+00 
86 86 4.986328e+00 4.167190e+00 7.771020e+00 
87 87 3.611278e+00 4.181309e+00 3.678387e+00 
88 88 3.018374e+00 7.492420e+00 2.290450e+00 
89 89 7.256399e+00 3.661148e-01 1.463080e+00 
90 90 4.466769e+00 4.529400e+00 5.244064e+00 
91 91 4.387984e+00 3.637935e+00 6.421166e+00 
92 92 3.080189e+00 5.947202e+00 2.264979e+00 
93 93 2.559592e+00 4.844833e+00 6.735541e+00 
94 94 6.793911e+00 4.932231e+00 7.213913e+00 
95 95 1.230659e+00 1.374162e+00 5.051123e+00 
96 96 3.848151e+00 1.695734e+00 8.878291e-02 
97 97 7.983831e+00 3.537067e+00 3.355858e-01 
98 98 5.164785e+00 1.625066e+00 4.134833e-01 
99 99 2.548117e+00 9.480440e-01 3.096593e-01 
100 100 3.705538e+00 5.440463e+00 4.947375e+00 
101 101 3.997651e+00 2.072335e+00 4.042912e+00 
102 102 1.659621e+00 1.849987e+00 7.218062e+00 
103 103 4.355407e+00 7.208309e+00 6.127765e+00 
104 104 5.311077e+00 1.997282e+00 5.721989e+00 
105 105 2.629687e+00 5.813585e+00 6.026098e+00 
106 106 5.864643e+00 2.079644e+00 3.054005e+00 
107 107 4.983662e+00 6.719703e+00 7.158466e+00 
108 108 1.498806e+00 2.391689e+00 3.529887e+00 
109 109 3.396818e+00 2.133385e+00 5.167406e+00 
110 110 2.168538e+00 1.379767e+00 2.390705e+00 
111 111 7.995230e+00 2.987525e+00 5.926796e+00 
112 112 5.667439e-01 4.337475e+00 1.771842e+00 
113 113 7.108028e+00 7.217285e+00 3.929791e+00 
114 114 9.015753e-01 6.658469e+00 5.756669e+00 
115 115 1.521344e+00 3.124587e+00 6.204499e+00 
116 116 5.166449e+00 7.598008e+00 4.953236e+00 
117 117 2.811865e+00 5.508008e+00 3.818588e+00 
118 118 1.219524e+00 7.959433e+00 1.013902e+00 
119 119 1.742402e+00 2.386673e+00 4.923742e+00 
120 120 2.087391e+00 5.911378e+00 3.057729e+00 
121 121 6.638494e+00 2.284282e+00 6.158584e+00 
122 122 8.407286e-01 5.399384e+00 5.599658e+00 
123 123 2.253934e+00 4.099927e+00 4.518296e+00 
124 124 2.951664e-01 4.125992e+00 4.624091e+00 
125 125 7.085840e+00 1.241916e+00 3.349464e+00 
126 126 3.814666e+00 1.151863e+00 5.990935e+00 
127 127 3.472930e+00 3.319164e-01 4.856609e-01 
128 128 3.484580e+00 7.502555e+00 5.175102e+00 
129 129 4.205814e+00 5.696339e+00 2.796581e+00 
130 130 3.318002e+00 6.220971e+00 1.256625e+00 
131 131 4.698462e+00 3.858885e+00 3.365665e+00 
132 132 5.284751e+00 7.124693e+00 1.036292e+00 
133 133 7.153930e-01 5.422703e+00 6.286046e-01 
134 134 7.588682e+00 2.792778e+00 2.268772e+00 
135 135 5.978538e+00 7.435171e+00 3.627861e+00 
136 136 7.573337e+00 6.570054e+00 2.156864e+00 
137 137 1.891304e+00 6.203376e+00 7.517686e-02 
138 138 6.175166e+00 5.378067e+00 6.125213e+00 
139 139 7.385034e+00 7.858783e+00 3.070832e+00 
140 140 5.184398e+00 8.399577e-01 5.766408e+00 
141 141 5.365240e+00 4.842419e+00 3.338882e+00 
142 142 4.976606e+00 2.699224e+00 4.195101e+00 
143 143 4.164424e+00 3.329223e+00 1.387309e-01 
144 144 9.603223e-01 7.232238e+00 3.013637e+00 
145 145 7.768497e+00 2.307423e+00 4.482645e+00 
146 146 7.726910e+00 1.466431e+00 6.016054e+00 
147 147 3.108931e+00 1.553379e+00 4.355002e+00 
148 148 7.718161e-01 1.883836e+00 2.735155e+00 
149 149 2.769712e+00 6.047588e+00 4.772225e+00 
150 150 6.269127e+00 4.415194e-01 6.619236e+00 
151 151 1.724361e+00 7.830366e-01 6.511865e+00 
152 152 3.501809e-01 8.463461e-01 6.873732e+00 
153 153 1.699814e+00 7.838390e-02 2.401864e+00 
154 154 7.474503e+00 5.176507e+00 4.174117e+00 
155 155 3.808388e-01 1.031508e+00 4.532468e+00 
156 156 5.776691e-01 2.618642e+00 2.036429e+00 
157 157 1.182957e+00 8.100940e-01 1.871236e-01 
158 158 5.644441e+00 1.011889e+00 3.039236e+00 
159 159 3.011627e+00 3.698316e+00 4.869988e-01 
160 160 4.250602e-03 7.622152e+00 5.780951e+00 
161 161 1.277650e+00 4.699324e+00 3.244889e+00 
162 162 6.719491e+00 4.337369e+00 2.524814e+00 
163 163 6.162552e+00 7.358161e+00 1.548013e+00 
164 164 5.374880e+00 5.974040e+00 5.433898e+00 
165 165 6.287049e+00 2.776340e+00 2.172417e+00 
166 166 4.772039e+00 5.263640e+00 7.562550e+00 
167 167 9.237234e-02 4.619349e+00 6.651599e+00 
168 168 7.023160e+00 4.218434e+00 1.514764e+00 
169 169 2.903909e+00 7.603539e+00 3.546941e+00 
170 170 7.732426e+00 2.958505e+00 7.391634e+00 
171 171 2.587312e+00 2.426477e+00 4.372709e+00 
172 172 1.252983e+00 3.402884e+00 2.451091e+00 
173 173 6.606484e-01 8.483762e-01 1.095795e+00 
174 174 2.676775e+00 2.912126e+00 7.753288e+00 
175 175 3.315335e+00 3.874064e+00 6.493285e+00 
176 176 1.601116e+00 7.000472e+00 1.426565e+00 
177 177 3.870534e+00 5.082912e+00 6.075330e+00 
178 178 5.974697e+00 1.307409e+00 4.183970e+00 
179 179 3.276321e+00 1.880573e+00 2.493644e+00 
180 180 5.852337e+00 3.111771e+00 7.269619e+00 
181 181 7.839602e+00 3.219526e+00 4.932806e+00 
182 182 1.739691e+00 3.115524e+00 2.704171e-01 
183 183 4.661952e+00 6.679005e+00 4.716480e+00 
184 184 4.683806e+00 6.010112e+00 1.002074e+00 
185 185 5.515455e+00 3.553014e+00 5.171622e+00 
186 186 3.928876e+00 7.051787e+00 2.274101e-01 
187 187 4.794673e+00 2.874978e+00 5.827094e+00 
188 188 6.432713e+00 6.157228e+00 1.740965e+00 
189 189 5.214543e+00 5.987680e+00 2.180637e+00 
190 190 3.737694e+00 3.787070e+00 2.158085e+00 
191 191 1.251541e+00 5.046857e+00 7.346952e+00 
192 192 1.265852e+00 4.241922e+00 5.175870e+00 
193 193 7.184627e+00 3.982512e+00 7.003103e+00 
194 194 6.345231e-02 1.203336e-01 2.063673e+00 
195 195 2.793107e+00 5.602230e-01 6.720989e+00 
196 196 1.159836e+00 3.774859e-01 3.906685e+00 
197 197 3.822300e+00 1.766822e+00 1.526485e+00 
198 198 7.685466e+00 6.649042e+00 6.442721e+00 
199 199 7.094589e+00 5.528732e+00 9.204717e-01 
200 200 6.111812e+00 2.152175e+00 7.097040e+00 
201 201 9.274113e-01 3.479207e+00 4.189437e+00 
202 202 3.881374e-01 7.336284e+00 7.915255e+00 
203 203 3.976621e+00 4.757144e+00 3.201753e-01 
204 204 7.225553e+00 5.538324e+00 6.468583e+00 
205 205 7.764799e+00 6.438343e+00 3.361549e+00 
206 206 5.064891e+00 7.882212e+00 6.682646e+00 
207 207 1.811759e+00 3.763844e+00 1.081918e+00 
208 208 1.115345e-01 2.723951e+00 3.294259e+00 
209 209 1.442720e-01 7.756046e+00 1.022123e+00 
210 210 2.050441e+00 2.781548e+00 1.371307e+00 
211 211 4.397938e+00 1.842400e+00 5.194694e+00 
212 212 5.750677e+00 4.499587e+00 7.199667e+00 
213 213 5.623435e+00 3.611534e+00 2.504917e+00 
214 214 1.138123e+00 4.886024e+00 4.298650e+00 
215 215 6.118245e+00 3.532196e+00 3.379636e+00 
216 216 7.853833e+00 5.945974e+00 3.309930e-01 
217 217 7.968534e-01 2.375645e+00 5.795153e+00 
218 218 4.728163e+00 2.265224e-01 5.284678e-01 
219 219 2.064157e+00 5.295279e+00 2.252264e+00 
220 220 1.879836e+00 5.779435e+00 4.300467e+00 
221 221 6.432199e-02 5.773048e+00 7.342309e+00 
222 222 1.965312e+00 6.671297e+00 4.919690e+00 
223 223 2.812520e+00 6.446656e+00 7.462150e+00 
224 224 6.118035e-01 5.009804e-01 5.721436e+00 
225 225 6.234873e+00 5.204208e+00 2.197448e+00 
226 226 3.607652e+00 2.905896e+00 5.941848e+00 
227 227 5.161928e+00 4.844673e+00 5.100201e-01 
228 228 3.276488e+00 9.817187e-01 7.590010e+00 
229 229 3.422658e+00 4.432158e+00 5.324799e+00 
230 230 2.715329e+00 1.230255e-02 5.871816e+00 
231 231 5.425820e+00 5.456014e+00 4.233764e+00 
232 232 6.367445e+00 1.042513e+00 2.661970e-02 
233 233 4.865290e+00 1.577279e+00 3.899404e+00 
234 234 6.516371e+00 6.882236e+00 2.663470e+00 
235 235 3.693580e+00 4.269244e+00 1.201463e+00 
236 236 2.637808e+00 1.874002e+00 3.505919e+00 
237 237 4.958942e+00 2.098363e+00 7.094656e+00 
238 238 2.262160e+00 8.705890e-01 1.315543e+00 
239 239 7.365488e+00 5.075060e-01 5.654426e+00 
240 240 1.790721e+00 5.113620e-01 5.378435e+00 
241 241 7.495340e+00 2.343841e+00 1.003192e+00 
242 242 4.451292e+00 5.558439e-01 4.970265e+00 
243 243 6.197346e+00 1.462905e+00 2.301707e+00 
244 244 3.242535e+00 5.080290e+00 1.603033e+00 
245 245 7.774050e+00 7.908785e+00 4.786403e+00 
246 246 3.723874e+00 6.731029e+00 2.367651e+00 
247 247 1.917814e+00 7.352614e+00 6.303649e+00 
248 248 5.525665e+00 7.674675e+00 2.588807e+00 
249 249 1.092208e+00 3.733162e+00 7.544348e+00 
250 250 6.393461e+00 7.584840e+00 5.678842e-01 
251 251 2.656487e+00 2.228995e+00 5.221374e-01 
252 252 2.457243e+00 7.527612e+00 4.729243e+00 
253 253 1.831313e+00 6.837320e+00 2.450469e+00 
254 254 7.959825e+00 1.381137e+00 5.939469e-01 
255 255 2.395062e+00 6.628528e+00 3.713281e+00 
ITEM: TIMESTEP 
0 
ITEM: NUMBER OF ATOMS 
256 
ITEM: BOX BOUNDS 
0.000000e+00 8.000000e+00 xlo xhi 
0.000000e+00 8.000000e+00 xlo xhi 
0.000000e+00 8.000000e+00 xlo xhi 
ITEM: ATOMS id type x y z 
0 0 2.540809e+00 3.607918e+00 2.128062e+00 
1 1 2.814417e+00 5.555657e-01 5.026572e+00 
2 2 1.913903e+00 1.889432e+00 6.194753e+00 
3 3 6.153191e+00 6.895294e+00 6.223672e+00 
4 4 1.757490e+00 4.961939e+00 1.137124e+00 
5 5 2.177086e+00 4.385239e+00 7.710848e+00 
6 6 7.513715e+00 3.698059e-01 2.342896e-02 
7 7 6.249566e+00 4.849365e+00 8.918644e-01 
8 8 6.541976e+00 6.828152e+00 5.021144e+00 
9 9 4.367807e+00 4.710656e+00 1.869805e+00 
10 10 6.543030e+00 1.979699e+00 6.181195e-01 
11 11 4.110226e+00 4.084243e-01 2.052496e+00 
12 12 2.652475e+00 3.135238e+00 3.359437e+00 
13 13 1.057511e+00 4.045200e+00 6.484178e+00 
14 14 6.769187e-01 6.580024e+00 2.098836e+00 
15 15 7.700269e+00 5.179026e+00 1.919825e+00 
16 16 7.646651e-01 5.551065e+00 3.512363e+00 
17 17 2.480830e+00 5.489011e-01 3.354394e+00 
18 18 7.516697e+00 1.426691e+00 1.569345e+00 
19 19 6.991098e+00 2.668625e+00 5.242916e+00 
20 20 5.259355e-01 9.787876e-01 3.315680e+00 
21 21 5.469081e+00 7.899069e-01 7.137350e+00 
22 22 1.354921e-02 4.861146e+00 1.482821e-01 
23 23 3.813202e-01 1.121874e+00 2.027294e+00 
24 24 6.820802e+00 3.820209e+00 7.932271e+00 
25 25 5.156931e+00 5.141915e+00 6.357504e+00 
26 26 4.706401e+00 6.810973e+00 2.522044e+00 
27 27 9.028588e-01 7.831560e+00 6.415388e+00 
28 28 7.976139e+00 4.136056e+00 2.771179e+00 
29 29 2.532120e+00 3.214225e+00 5.226495e+00 
30 30 5.418980e+00 4.240234e+00 1.420131e+00 
31 31 8.619347e-01 2.351149e+00 6.810450e+00 
32 32 6.508230e+00 7.654912e+00 7.561999e+00 
33 33 6.413938e+00 3.760762e-01 5.008202e+00 
34 34 1.668327e+00 7.248902e+00 7.589421e+00 
35 35 7.666768e-01 3.516854e+00 1.211852e+00 
36 36 5.330627e+00 1.918498e+00 1.750559e+00 
37 37 7.724175e-01 6.621878e+00 4.104077e+00 
38 38 7.194869e+00 6.484992e+00 7.450292e+00 
39 39 3.952440e+00 5.956024e+00 7.384293e+00 
40 40 6.296224e+00 2.753096e+00 4.337452e+00 
41 41 8.024506e-01 2.095878e+00 4.460847e+00 
42 42 7.447459e+00 5.762691e+00 5.074585e+00 
43 43 5.821134e+00 6.406141e+00 4.572354e-01 
44 44 9.828854e-01 6.788585e+00 6.599343e-01 
45 45 2.253967e+00 5.127550e+00 5.169339e+00 
46 46 4.967236e+00 2.978479e+00 1.497281e+00 
47 47 2.615009e+00 4.752170e+00 3.136935e+00 
48 48 1.574799e+00 2.342307e+00 2.298114e+00 
49 49 9.535941e-01 5.899526e+00 6.623700e+00 
50 50 1.219767e-01 7.305441e+00 3.779290e+00 
51 51 4.521024e+00 6.768821e+00 3.595273e+00 
52 52 3.886714e+00 5.381952e-01 3.672145e+00 
53 53 1.906588e+00 7.702682e+00 3.645844e+00 
54 54 4.380545e+00 2.205448e+00 3.005958e+00 
55 55 5.918088e+00 3.461956e+00 6.222970e+00 
56 56 5.860335e+00 3.431142e-01 1.885505e+00 
57 57 6.950933e+00 5.551166e+00 3.187151e+00 
58 58 7.377386e+00 2.219924e+00 1.346179e-02 
59 59 2.628036e+00 6.796570e+00 6.013351e-01 
60 60 6.976376e+00 4.344791e+00 5.377748e+00 
61 61 3.781926e+00 3.091157e+00 4.964839e+00 
62 62 6.346171e+00 2.942410e+00 1.504877e-01 
63 63 5.717911e+00 5.487766e+00 7.323015e+00 
64 64 5.742818e+00 3.836016e-01 7.292289e-01 
65 65 3.129587e+00 3.088323e+00 1.311908e+00 
66 66 7.112953e+00 4.008637e+00 3.494029e+00 
67 67 2.840161e+00 2.402550e+00 6.608032e+00 
68 68 3.016746e+00 7.448969e+00 6.758873e+00 
69 69 5.786718e+00 6.002484e+00 3.442558e+00 
70 70 5.998394e+00 4.601351e+00 4.684655e+00 
71 71 4.131817e+00 1.518540e+00 6.932110e+00 
72 72 3.268693e+00 5.565525e+00 2.443688e-01 
73 73 3.961803e+00 9.010066e-02 7.569222e+00 
74 74 1.485676e+00 7.559635e+00 5.038187e+00 
75 75 7.128957e+00 3.232913e+00 1.278743e+00 
76 76 3.716519e+00 6.483208e+00 5.813139e+00 
77 77 1.302959e+00 2.159895e+00 6.526126e-01 
78 78 7.572665e+00 6.729366e+00 1.073445e+00 
79 79 4.576802e+00 3.561699e+00 4.490311e+00 
80 80 4.950576e+00 7.822455e+00 1.707485e+00 
81 81 3.491488e+00 6.954367e+00 4.042940e+00 
82 82 3.436790e+00 4.481584e+00 7.371974e+00 
83 83 7.551922e+00 7.860344e+00 6.723830e+00 
84 84 5.180112e+00 4.684478e-02 3.824696e+00 
85 85 7.104680e+00 1.101456e+00 4.632799e+00 
86 86 4.970963e+00 4.164860e+00 7.768538e+00 
87 87 3.613379e+00 4.173687e+00 3.691064e+00 
88 88 3.020776e+00 7.500505e+00 2.291587e+00 
89 89 7.255556e+00 3.639672e-01 1.451029e+00 
90 90 4.450547e+00 4.527869e+00 5.256747e+00 
91 91 4.391529e+00 3.639960e+00 6.415209e+00 
92 92 3.085819e+00 5.960716e+00 2.280820e+00 
93 93 2.567580e+00 4.855313e+00 6.747413e+00 
94 94 6.791181e+00 4.935880e+00 7.208890e+00 
95 95 1.219664e+00 1.389221e+00 5.055149e+00 
96 96 3.854323e+00 1.682834e+00 8.025438e-02 
97 97 7.969725e+00 3.548293e+00 3.419759e-01 
98 98 5.181623e+00 1.631227e+00 4.009579e-01 
99 99 2.536495e+00 9.469231e-01 3.083184e-01 
100 100 3.690818e+00 5.438423e+00 4.943662e+00 
101 101 3.982471e+00 2.081490e+00 4.045284e+00 
102 102 1.662314e+00 1.854845e+00 7.231974e+00 
103 103 4.359157e+00 7.203953e+00 6.126176e+00 
104 104 5.311470e+00 2.004991e+00 5.703028e+00 
105 105 2.615131e+00 5.822990e+00 6.016666e+00 
106 106 5.855545e+00 2.084614e+00 3.048415e+00 
107 107 5.001125e+00 6.731661e+00 7.145463e+00 
108 108 1.497385e+00 2.387196e+00 3.527340e+00 
109 109 3.386568e+00 2.142613e+00 5.173823e+00 
110 110 2.176014e+00 1.375820e+00 2.381396e+00 
111 111 7.978616e+00 2.990707e+00 5.917919e+00 
112 112 5.551326e-01 4.346889e+00 1.782144e+00 
113 113 7.098948e+00 7.228356e+00 3.918206e+00 