ITEM: TIMESTEP 
0 
ITEM: NUMBER OF ATOMS 
256 
ITEM: BOX BOUNDS 
0.000000e+00 8.000000e+00 xlo xhi 
0.000000e+00 8.000000e+00 xlo xhi 
0.000000e+00 8.000000e+00 xlo xhi 
ITEM: ATOMS id type x y z 
0 0 2.526514e+00 3.622856e+00 2.135284e+00 
1 1 2.819798e+00 5.415651e-01 5.012207e+00 
2 2 1.898624e+00 1.883603e+00 6.194963e+00 
3 3 6.141594e+00 6.907114e+00 6.221060e+00 
4 4 1.740909e+00 4.962094e+00 1.130405e+00 
5 5 2.183905e+00 4.391730e+00 7.720384e+00 
6 6 7.506946e+00 3.776200e-01 1.806948e-02 
7 7 6.263223e+00 4.844827e+00 8.962048e-01 
8 8 6.526695e+00 6.835465e+00 5.018807e+00 
9 9 4.348584e+00 4.716782e+00 1.854588e+00 
10 10 6.545046e+00 1.966969e+00 6.098703e-01 
11 11 4.097999e+00 4.037304e-01 2.053770e+00 
12 12 2.649993e+00 3.138777e+00 3.376808e+00 
13 13 1.074452e+00 4.055149e+00 6.472274e+00 
14 14 6.920620e-01 6.594157e+00 2.086113e+00 
15 15 7.712746e+00 5.190281e+00 1.909790e+00 
16 16 7.638669e-01 5.559556e+00 3.505622e+00 
17 17 2.471998e+00 5.419391e-01 3.350406e+00 
18 18 7.513501e+00 1.444012e+00 1.556750e+00 
19 19 7.005588e+00 2.657542e+00 5.247314e+00 
20 20 5.112797e-01 9.953859e-01 3.320493e+00 
21 21 5.463228e+00 8.044652e-01 7.146452e+00 
22 22 1.063175e-02 4.844463e+00 1.691169e-01 
23 23 3.757563e-01 1.132954e+00 2.016786e+00 
24 24 6.814224e+00 3.824045e+00 7.922932e+00 
25 25 5.159855e+00 5.137887e+00 6.374881e+00 
26 26 4.717432e+00 6.802396e+00 2.529890e+00 
27 27 9.183597e-01 7.840343e+00 6.408644e+00 
28 28 7.987416e+00 4.131350e+00 2.763669e+00 
29 29 2.514641e+00 3.204329e+00 5.216371e+00 
30 30 5.416071e+00 4.249730e+00 1.403201e+00 
31 31 8.654489e-01 2.334614e+00 6.822179e+00 
32 32 6.517966e+00 7.668980e+00 7.555735e+00 
33 33 6.428521e+00 3.709139e-01 5.013759e+00 
34 34 1.685980e+00 7.248700e+00 7.598305e+00 
35 35 7.475656e-01 3.521086e+00 1.212257e+00 
36 36 5.313767e+00 1.916747e+00 1.735037e+00 
37 37 7.699739e-01 6.626456e+00 4.106679e+00 
38 38 7.190437e+00 6.489543e+00 7.431239e+00 
39 39 3.936922e+00 5.958408e+00 7.372759e+00 
40 40 6.311365e+00 2.761807e+00 4.341966e+00 
41 41 7.930163e-01 2.095835e+00 4.471592e+00 
42 42 7.455312e+00 5.778183e+00 5.067750e+00 
43 43 5.803597e+00 6.404079e+00 4.578491e-01 
44 44 9.694075e-01 6.793382e+00 6.637778e-01 
45 45 2.266252e+00 5.134243e+00 5.159936e+00 
46 46 4.951261e+00 2.962313e+00 1.488511e+00 
47 47 2.602772e+00 4.746330e+00 3.124853e+00 
48 48 1.569795e+00 2.345690e+00 2.306452e+00 
49 49 9.700824e-01 5.910457e+00 6.633912e+00 
50 50 1.019246e-01 7.304666e+00 3.798103e+00 
51 51 4.525100e+00 6.751388e+00 3.582796e+00 
52 52 3.887840e+00 5.342843e-01 3.663703e+00 
53 53 1.900009e+00 7.712279e+00 3.652460e+00 
54 54 4.391770e+00 2.223538e+00 2.995860e+00 
55 55 5.925981e+00 3.451733e+00 6.223544e+00 
56 56 5.851385e+00 3.612863e-01 1.895562e+00 
57 57 6.946746e+00 5.550896e+00 3.191450e+00 
58 58 7.366389e+00 2.231194e+00 7.984079e-03 
59 59 2.610257e+00 6.784094e+00 5.930041e-01 
60 60 6.981257e+00 4.365006e+00 5.383073e+00 
61 61 3.787524e+00 3.095193e+00 4.960669e+00 
62 62 6.332387e+00 2.934173e+00 1.526320e-01 
63 63 5.721792e+00 5.501122e+00 7.310307e+00 
64 64 5.747809e+00 4.027703e-01 7.236139e-01 
65 65 3.121302e+00 3.085468e+00 1.298873e+00 
66 66 7.115247e+00 4.009085e+00 3.493496e+00 
67 67 2.826605e+00 2.410629e+00 6.595543e+00 
68 68 3.022137e+00 7.463515e+00 6.765191e+00 
69 69 5.792832e+00 5.992074e+00 3.435569e+00 
70 70 6.000756e+00 4.609285e+00 4.668878e+00 
71 71 4.139226e+00 1.535768e+00 6.917986e+00 
72 72 3.270606e+00 5.578198e+00 2.483710e-01 
73 73 3.976205e+00 1.038316e-01 7.587014e+00 
74 74 1.499360e+00 7.572832e+00 5.027904e+00 
75 75 7.140879e+00 3.246579e+00 1.270572e+00 
76 76 3.723901e+00 6.464427e+00 5.814088e+00 
77 77 1.311924e+00 2.153608e+00 6.466232e-01 
78 78 7.567850e+00 6.726613e+00 1.088012e+00 
79 79 4.563224e+00 3.567089e+00 4.506062e+00 
80 80 4.960642e+00 7.829975e+00 1.717403e+00 
81 81 3.494675e+00 6.936359e+00 4.026568e+00 
82 82 3.425084e+00 4.483022e+00 7.362174e+00 
83 83 7.565300e+00 7.841540e+00 6.743311e+00 
84 84 5.198219e+00 5.277389e-02 3.840727e+00 
85 85 7.106915e+00 1.090069e+00 4.623919e+00 
86 86 4.987796e+00 4.167524e+00 7.771203e+00 
87 87 3.611072e+00 4.181982e+00 3.677233e+00 
88 88 3.018048e+00 7.491371e+00 2.290429e+00 
89 89 7.256517e+00 3.663375e-01 1.464305e+00 
90 90 4.468106e+00 4.529429e+00 5.242712e+00 
91 91 4.387616e+00 3.637594e+00 6.421729e+00 
92 92 3.079553e+00 5.945753e+00 2.263543e+00 
93 93 2.558795e+00 4.843641e+00 6.734305e+00 
94 94 6.794104e+00 4.931922e+00 7.214295e+00 
95 95 1.231710e+00 1.372494e+00 5.050472e+00 
96 96 3.847468e+00 1.696842e+00 8.954823e-02 
97 97 7.985204e+00 3.535840e+00 3.348861e-01 
98 98 5.163230e+00 1.624152e+00 4.148259e-01 
99 99 2.549368e+00 9.480412e-01 3.095324e-01 
100 100 3.706909e+00 5.440451e+00 4.947911e+00 
101 101 3.998902e+00 2.071417e+00 4.042685e+00 
102 102 1.659263e+00 1.849367e+00 7.216587e+00 
103 103 4.354935e+00 7.208802e+00 6.127698e+00 
104 104 5.310897e+00 1.996461e+00 5.723836e+00 
105 105 2.630997e+00 5.812433e+00 6.026752e+00 
106 106 5.865418e+00 2.079052e+00 3.054280e+00 
107 107 4.982009e+00 6.718597e+00 7.159842e+00 
108 108 1.498856e+00 2.391964e+00 3.530179e+00 
109 109 3.398041e+00 2.132441e+00 5.166685e+00 
110 110 2.167902e+00 1.380123e+00 2.391960e+00 
111 111 7.996950e+00 2.987038e+00 5.927607e+00 
112 112 5.679279e-01 4.336466e+00 1.770769e+00 
113 113 7.109024e+00 7.216115e+00 3.930897e+00 
114 114 9.019855e-01 6.657478e+00 5.758088e+00 
115 115 1.521950e+00 3.126428e+00 6.204858e+00 
116 116 5.167168e+00 7.598779e+00 4.951593e+00 
117 117 2.810399e+00 5.506294e+00 3.819802e+00 
118 118 1.218037e+00 7.957960e+00 1.015602e+00 
119 119 1.743336e+00 2.385676e+00 4.925318e+00 
120 120 2.087972e+00 5.911320e+00 3.058899e+00 
121 121 6.639893e+00 2.285388e+00 6.159814e+00 
122 122 8.392923e-01 5.398906e+00 5.601075e+00 
123 123 2.255279e+00 4.099674e+00 4.517787e+00 
124 124 2.952292e-01 4.125067e+00 4.624614e+00 
125 125 7.085114e+00 1.243249e+00 3.350517e+00 
126 126 3.814590e+00 1.152996e+00 5.991939e+00 
127 127 3.473922e+00 3.310214e-01 4.854607e-01 
128 128 3.485273e+00 7.503429e+00 5.174619e+00 
129 129 4.205768e+00 5.695877e+00 2.797355e+00 
130 130 3.318877e+00 6.220765e+00 1.255218e+00 
131 131 4.699928e+00 3.857398e+00 3.365647e+00 
132 132 5.283102e+00 7.125419e+00 1.034904e+00 
133 133 7.156067e-01 5.422452e+00 6.301650e-01 
134 134 7.587569e+00 2.794466e+00 2.267999e+00 
135 135 5.979559e+00 7.434413e+00 3.626751e+00 
136 136 7.573129e+00 6.570486e+00 2.156666e+00 
137 137 1.891099e+00 6.204516e+00 7.422434e-02 
138 138 6.176225e+00 5.378671e+00 6.124617e+00 
139 139 7.384418e+00 7.858884e+00 3.069901e+00 
140 140 5.182885e+00 8.398227e-01 5.767846e+00 
141 141 5.364858e+00 4.842360e+00 3.340205e+00 
142 142 4.976785e+00 2.698596e+00 4.193978e+00 
143 143 4.163876e+00 3.330418e+00 1.372504e-01 
144 144 9.609348e-01 7.233605e+00 3.012747e+00 
145 145 7.768540e+00 2.306665e+00 4.484304e+00 
146 146 7.726876e+00 1.466322e+00 6.014447e+00 
147 147 3.109299e+00 1.552707e+00 4.356139e+00 
148 148 7.720916e-01 1.884400e+00 2.736726e+00 
149 149 2.770780e+00 6.046014e+00 4.772208e+00 
150 150 6.268295e+00 4.412322e-01 6.618201e+00 
151 151 1.724056e+00 7.839181e-01 6.512939e+00 
152 152 3.512089e-01 8.445886e-01 6.875326e+00 
153 153 1.699545e+00 7.933244e-02 2.401901e+00 
154 154 7.473575e+00 5.177715e+00 4.172771e+00 
155 155 3.813666e-01 1.033019e+00 4.532485e+00 
156 156 5.768457e-01 2.617489e+00 2.035595e+00 
157 157 1.182412e+00 8.087633e-01 1.884589e-01 
158 158 5.645728e+00 1.012680e+00 3.038774e+00 
159 159 3.010788e+00 3.698301e+00 4.876402e-01 
160 160 5.183454e-03 7.621869e+00 5.781899e+00 
161 161 1.277623e+00 4.699967e+00 3.243910e+00 
162 162 6.719566e+00 4.336099e+00 2.525980e+00 
163 163 6.161493e+00 7.356392e+00 1.548235e+00 
164 164 5.376347e+00 5.974952e+00 5.433752e+00 
165 165 6.288169e+00 2.776897e+00 2.173393e+00 
166 166 4.773314e+00 5.264285e+00 7.561534e+00 
167 167 9.398772e-02 4.618904e+00 6.652609e+00 
168 168 7.023085e+00 4.218973e+00 1.514303e+00 
169 169 2.903927e+00 7.602876e+00 3.547250e+00 
170 170 7.733086e+00 2.959434e+00 7.393490e+00 
171 171 2.585793e+00 2.428043e+00 4.372000e+00 
172 172 1.251646e+00 3.401648e+00 2.451010e+00 
173 173 6.621664e-01 8.473511e-01 1.095663e+00 
174 174 2.675478e+00 2.910821e+00 7.754886e+00 
175 175 3.314043e+00 3.873069e+00 6.492127e+00 
176 176 1.602729e+00 7.000222e+00 1.425424e+00 
177 177 3.869909e+00 5.084174e+00 6.073848e+00 
178 178 5.974291e+00 1.306145e+00 4.185006e+00 
179 179 3.275181e+00 1.879659e+00 2.495219e+00 
180 180 5.853220e+00 3.110691e+00 7.269088e+00 
181 181 7.840578e+00 3.217990e+00 4.932393e+00 
182 182 1.740632e+00 3.115300e+00 2.716769e-01 
183 183 4.660322e+00 6.679886e+00 4.717529e+00 
184 184 4.683007e+00 6.010411e+00 1.000583e+00 
185 185 5.515174e+00 3.552254e+00 5.170408e+00 
186 186 3.929343e+00 7.051319e+00 2.275611e-01 
187 187 4.795517e+00 2.873946e+00 5.826614e+00 
188 188 6.432473e+00 6.155670e+00 1.742771e+00 
189 189 5.214218e+00 5.987201e+00 2.180955e+00 
190 190 3.737886e+00 3.786951e+00 2.158971e+00 
191 191 1.250102e+00 5.045160e+00 7.347707e+00 
192 192 1.266818e+00 4.241223e+00 5.177584e+00 
193 193 7.185335e+00 3.981683e+00 7.002466e+00 
194 194 6.458642e-02 1.185715e-01 2.064221e+00 
195 195 2.791599e+00 5.596581e-01 6.721981e+00 
196 196 1.159174e+00 3.781277e-01 3.905505e+00 
197 197 3.821404e+00 1.767140e+00 1.527419e+00 
198 198 7.685160e+00 6.649215e+00 6.444361e+00 
199 199 7.093368e+00 5.528502e+00 9.202428e-01 
200 200 6.111297e+00 2.151625e+00 7.096817e+00 
201 201 9.285450e-01 3.479120e+00 4.189097e+00 
202 202 3.885552e-01 7.335785e+00 7.913669e+00 
203 203 3.974927e+00 4.758658e+00 3.213449e-01 
204 204 7.227172e+00 5.536615e+00 6.467901e+00 
205 205 7.766000e+00 6.437891e+00 3.360093e+00 
206 206 5.065421e+00 7.883489e+00 6.681829e+00 
207 207 1.811457e+00 3.762354e+00 1.080417e+00 
208 208 1.107960e-01 2.725202e+00 3.295405e+00 
209 209 1.458189e-01 7.755230e+00 1.021732e+00 
210 210 2.051448e+00 2.780239e+00 1.370326e+00 
211 211 4.396541e+00 1.842706e+00 5.195550e+00 
212 212 5.749150e+00 4.499013e+00 7.198409e+00 
213 213 5.623643e+00 3.609977e+00 2.504372e+00 
214 214 1.137235e+00 4.884994e+00 4.298181e+00 
215 215 6.117537e+00 3.530289e+00 3.378915e+00 
216 216 7.854026e+00 5.945149e+00 3.293865e-01 
217 217 7.955627e-01 2.375364e+00 5.796601e+00 
218 218 4.729092e+00 2.275665e-01 5.290405e-01 
219 219 2.063441e+00 5.294957e+00 2.253764e+00 
220 220 1.879796e+00 5.780590e+00 4.300920e+00 
221 221 6.322766e-02 5.773179e+00 7.343367e+00 
222 222 1.964286e+00 6.672868e+00 4.920758e+00 
223 223 2.810834e+00 6.448143e+00 7.460890e+00 
224 224 6.106244e-01 4.995302e-01 5.720615e+00 
225 225 6.234102e+00 5.202383e+00 2.196914e+00 
226 226 3.608185e+00 2.904868e+00 5.941725e+00 
227 227 5.162171e+00 4.845461e+00 5.103275e-01 
228 228 3.277800e+00 9.812653e-01 7.590426e+00 
229 229 3.421419e+00 4.430475e+00 5.325497e+00 
230 230 2.716930e+00 1.122712e-02 5.871067e+00 
231 231 5.424797e+00 5.454974e+00 4.235666e+00 
232 232 6.366451e+00 1.043802e+00 2.820735e-02 
233 233 4.864519e+00 1.576336e+00 3.898111e+00 
234 234 6.517088e+00 6.883421e+00 2.662097e+00 
235 235 3.692597e+00 4.268116e+00 1.199638e+00 
236 236 2.637883e+00 1.874728e+00 3.506294e+00 
237 237 4.959030e+00 2.098884e+00 7.095417e+00 
238 238 2.262424e+00 8.693662e-01 1.317031e+00 
239 239 7.364947e+00 5.086451e-01 5.655492e+00 
240 240 1.791910e+00 5.128906e-01 5.377925e+00 
241 241 7.494753e+00 2.343564e+00 1.002446e+00 
242 242 4.449496e+00 5.542290e-01 4.969756e+00 
243 243 6.196641e+00 1.462171e+00 2.301158e+00 
244 244 3.242218e+00 5.081601e+00 1.602898e+00 
245 245 7.775346e+00 7.910103e+00 4.787402e+00 
246 246 3.725413e+00 6.732198e+00 2.367345e+00 
247 247 1.917336e+00 7.354047e+00 6.302775e+00 
248 248 5.526555e+00 7.675527e+00 2.588157e+00 
249 249 1.091911e+00 3.733460e+00 7.544396e+00 
250 250 6.393458e+00 7.583275e+00 5.664803e-01 
251 251 2.654981e+00 2.227822e+00 5.207189e-01 
252 252 2.456476e+00 7.526800e+00 4.730815e+00 
253 253 1.830848e+00 6.836222e+00 2.448973e+00 
254 254 7.961598e+00 1.381657e+00 5.930777e-01 
255 255 2.394042e+00 6.630065e+00 3.712811e+00 
ITEM: TIMESTEP 
0 
ITEM: NUMBER OF ATOMS 
256 
ITEM: BOX BOUNDS 
0.000000e+00 8.000000e+00 xlo xhi 
0.000000e+00 8.000000e+00 xlo xhi 
0.000000e+00 8.000000e+00 xlo xhi 
ITEM: ATOMS id type x y z 
0 0 2.527831e+00 3.621379e+00 2.134670e+00 
1 1 2.819401e+00 5.427313e-01 5.013575e+00 
2 2 1.900152e+00 1.883888e+00 6.194927e+00 
3 3 6.142531e+00 6.906009e+00 6.221138e+00 
4 4 1.742294e+00 4.962085e+00 1.131003e+00 
5 5 2.183236e+00 4.391009e+00 7.719478e+00 
6 6 7.507477e+00 3.767974e-01 1.860851e-02 
7 7 6.261901e+00 4.845172e+00 8.959033e-01 
8 8 6.527892e+00 6.834552e+00 5.019277e+00 
9 9 4.350214e+00 4.715802e+00 1.855959e+00 
10 10 6.544761e+00 1.967870e+00 6.106828e-01 
11 11 4.098860e+00 4.039740e-01 2.053628e+00 
12 12 2.650279e+00 3.138247e+00 3.375019e+00 
13 13 1.072846e+00 4.053919e+00 6.473268e+00 
14 14 6.905748e-01 6.592392e+00 2.087055e+00 
15 15 7.711673e+00 5.189156e+00 1.910621e+00 
16 16 7.636354e-01 5.558621e+00 3.506020e+00 
17 17 2.472882e+00 5.423484e-01 3.350639e+00 
18 18 7.513691e+00 1.442364e+00 1.557919e+00 
19 19 7.004119e+00 2.658440e+00 5.246792e+00 
20 20 5.124996e-01 9.938550e-01 3.320059e+00 
21 21 5.463676e+00 8.030479e-01 7.145601e+00 
22 22 1.091945e-02 4.845831e+00 1.672833e-01 
23 23 3.763060e-01 1.131904e+00 2.017734e+00 
24 24 6.814743e+00 3.823688e+00 7.923782e+00 
25 25 5.159624e+00 5.138226e+00 6.373131e+00 
26 26 4.716380e+00 6.802937e+00 2.529223e+00 
27 27 9.168872e-01 7.839331e+00 6.409124e+00 
28 28 7.986342e+00 4.131872e+00 2.764538e+00 
29 29 2.516251e+00 3.205139e+00 5.217303e+00 
30 30 5.416215e+00 4.248577e+00 1.404650e+00 
31 31 8.647985e-01 2.336096e+00 6.821037e+00 
32 32 6.517115e+00 7.667474e+00 7.556370e+00 
33 33 6.426888e+00 3.712017e-01 5.013235e+00 
34 34 1.684592e+00 7.248560e+00 7.597377e+00 
35 35 7.489258e-01 3.520504e+00 1.212130e+00 
36 36 5.315035e+00 1.916684e+00 1.736325e+00 
37 37 7.700548e-01 6.625919e+00 4.106632e+00 
38 38 7.190599e+00 6.488955e+00 7.432757e+00 
39 39 3.938206e+00 5.958044e+00 7.373412e+00 
40 40 6.309827e+00 2.760601e+00 4.341371e+00 
41 41 7.938182e-01 2.095664e+00 4.470623e+00 
42 42 7.454528e+00 5.776508e+00 5.068407e+00 
43 43 5.805290e+00 6.404027e+00 4.576800e-01 
44 44 9.707463e-01 6.792771e+00 6.636317e-01 
45 45 2.264989e+00 5.133112e+00 5.160966e+00 
46 46 4.952474e+00 2.963620e+00 1.489408e+00 
47 47 2.604016e+00 4.746734e+00 3.125871e+00 
48 48 1.570336e+00 2.345173e+00 2.305823e+00 
49 49 9.685053e-01 5.909515e+00 6.632916e+00 
50 50 1.035932e-01 7.304438e+00 3.796344e+00 
51 51 4.524794e+00 6.752659e+00 3.583812e+00 
52 52 3.887708e+00 5.343328e-01 3.664189e+00 
53 53 1.900648e+00 7.711352e+00 3.651750e+00 
54 54 4.390701e+00 2.221776e+00 2.996583e+00 
55 55 5.925151e+00 3.452444e+00 6.223223e+00 
56 56 5.852141e+00 3.593729e-01 1.894648e+00 
57 57 6.946956e+00 5.550775e+00 3.191055e+00 
58 58 7.367228e+00 2.229928e+00 8.437511e-03 
59 59 2.611799e+00 6.785205e+00 5.937757e-01 
60 60 6.980789e+00 4.363096e+00 5.382690e+00 
61 61 3.786957e+00 3.094777e+00 4.960985e+00 
62 62 6.333442e+00 2.934942e+00 1.523535e-01 
63 63 5.721316e+00 5.499794e+00 7.311418e+00 
64 64 5.747182e+00 4.010658e-01 7.240785e-01 
65 65 3.122280e+00 3.085474e+00 1.300055e+00 
66 66 7.114820e+00 4.008884e+00 3.493572e+00 
67 67 2.827924e+00 2.409762e+00 6.596691e+00 
68 68 3.021697e+00 7.461747e+00 6.764669e+00 
69 69 5.792102e+00 5.992873e+00 3.436203e+00 
70 70 6.000407e+00 4.608318e+00 4.670250e+00 
71 71 4.138684e+00 1.534059e+00 6.919367e+00 
72 72 3.270248e+00 5.576926e+00 2.478446e-01 
73 73 3.974853e+00 1.022930e-01 7.585363e+00 
74 74 1.497873e+00 7.571208e+00 5.028773e+00 
75 75 7.139657e+00 3.245205e+00 1.271275e+00 
76 76 3.723312e+00 6.465879e+00 5.814092e+00 
77 77 1.311101e+00 2.153960e+00 6.469721e-01 
78 78 7.568220e+00 6.726805e+00 1.086669e+00 
79 79 4.564610e+00 3.566164e+00 4.504464e+00 
80 80 4.959617e+00 7.829038e+00 1.716402e+00 
81 81 3.494453e+00 6.937812e+00 4.028073e+00 
82 82 3.426139e+00 4.482675e+00 7.363122e+00 
83 83 7.563877e+00 7.842964e+00 6.741668e+00 
84 84 5.196628e+00 5.219286e-02 3.839227e+00 
85 85 7.106516e+00 1.090928e+00 4.624502e+00 
86 86 4.986114e+00 4.167022e+00 7.770893e+00 
87 87 3.611286e+00 4.181137e+00 3.678213e+00 
88 88 3.018430e+00 7.492058e+00 2.290379e+00 
89 89 7.256392e+00 3.657733e-01 1.463074e+00 
90 90 4.466673e+00 4.528969e+00 5.244015e+00 
91 91 4.387862e+00 3.637596e+00 6.421168e+00 
92 92 3.080127e+00 5.947016e+00 2.264884e+00 
93 93 2.559565e+00 4.844446e+00 6.735593e+00 
94 94 6.793908e+00 4.932206e+00 7.213762e+00 
95 95 1.230617e+00 1.373928e+00 5.050980e+00 
96 96 3.847992e+00 1.695469e+00 8.867493e-02 
97 97 7.983842e+00 3.536946e+00 3.354043e-01 
98 98 5.164663e+00 1.624862e+00 4.133519e-01 
99 99 2.548119e+00 9.479496e-01 3.095097e-01 
100 100 3.705719e+00 5.440243e+00 4.947545e+00 
101 101 3.997612e+00 2.072031e+00 4.042779e+00 
102 102 1.659612e+00 1.849761e+00 7.217884e+00 
103 103 4.355439e+00 7.207971e+00 6.127733e+00 
104 104 5.310918e+00 1.997193e+00 5.721990e+00 
105 105 2.629610e+00 5.813242e+00 6.026175e+00 
106 106 5.864518e+00 2.079243e+00 3.053633e+00 
107 107 4.983612e+00 6.719430e+00 7.158409e+00 
108 108 1.498601e+00 2.391337e+00 3.529901e+00 
109 109 3.396805e+00 2.133196e+00 5.167245e+00 
110 110 2.168632e+00 1.379435e+00 2.390634e+00 
111 111 7.995238e+00 2.987224e+00 5.926769e+00 
112 112 5.667060e-01 4.337389e+00 1.771589e+00 
113 113 7.108061e+00 7.216989e+00 3.929666e+00 
114 114 9.013384e-01 6.658296e+00 5.756573e+00 
115 115 1.521208e+00 3.124475e+00 6.204510e+00 
116 116 5.166210e+00 7.597510e+00 4.953104e+00 
117 117 2.811905e+00 5.507670e+00 3.818784e+00 
118 118 1.219505e+00 7.959138e+00 1.013872e+00 
119 119 1.742245e+00 2.386568e+00 4.923825e+00 
120 120 2.087353e+00 5.911064e+00 3.057829e+00 
121 121 6.638458e+00 2.284124e+00 6.158545e+00 
122 122 8.407226e-01 5.399068e+00 5.599592e+00 
123 123 2.253959e+00 4.099709e+00 4.518236e+00 
124 124 2.951103e-01 4.125707e+00 4.623975e+00 
125 125 7.085892e+00 1.241561e+00 3.349296e+00 
126 126 3.814431e+00 1.151506e+00 5.990833e+00 
127 127 3.472879e+00 3.316371e-01 4.858091e-01 
128 128 3.484548e+00 7.502210e+00 5.175082e+00 
129 129 4.205809e+00 5.695939e+00 2.796403e+00 
130 130 3.318035e+00 6.220694e+00 1.256414e+00 
131 131 4.698509e+00 3.858716e+00 3.365543e+00 
132 132 5.284648e+00 7.124345e+00 1.036228e+00 
133 133 7.154201e-01 5.422421e+00 6.283833e-01 
134 134 7.588533e+00 2.792757e+00 2.268823e+00 
135 135 5.978471e+00 7.435014e+00 3.627632e+00 
136 136 7.573236e+00 6.569733e+00 2.156857e+00 
137 137 1.891349e+00 6.203195e+00 7.526076e-02 
138 138 6.174914e+00 5.377680e+00 6.125158e+00 
139 139 7.384919e+00 7.858410e+00 3.070986e+00 
140 140 5.184316e+00 8.397249e-01 5.766256e+00 
141 141 5.365222e+00 4.842258e+00 3.338873e+00 
142 142 4.976657e+00 2.698965e+00 4.195062e+00 
143 143 4.164410e+00 3.328836e+00 1.387325e-01 
144 144 9.603640e-01 7.232005e+00 3.013501e+00 
145 145 7.768432e+00 2.306958e+00 4.482538e+00 
146 146 7.726969e+00 1.466298e+00 6.015937e+00 
147 147 3.108898e+00 1.553185e+00 4.355005e+00 
148 148 7.716608e-01 1.883668e+00 2.735175e+00 
149 149 2.769592e+00 6.047400e+00 4.772037e+00 
150 150 6.269105e+00 4.412652e-01 6.619052e+00 
151 151 1.724206e+00 7.828551e-01 6.511827e+00 
152 152 3.503140e-01 8.460425e-01 6.873637e+00 
153 153 1.699718e+00 7.827992e-02 2.401847e+00 
154 154 7.474490e+00 5.176157e+00 4.173884e+00 
155 155 3.809659e-01 1.031171e+00 4.532444e+00 
156 156 5.775366e-01 2.618503e+00 2.036245e+00 
157 157 1.182843e+00 8.097510e-01 1.871787e-01 
158 158 5.644342e+00 1.011652e+00 3.039399e+00 
159 159 3.011611e+00 3.697797e+00 4.869707e-01 
160 160 4.350156e-03 7.621928e+00 5.780828e+00 
161 161 1.277669e+00 4.699144e+00 3.244777e+00 
162 162 6.719399e+00 4.337172e+00 2.524878e+00 
163 163 6.162429e+00 7.357817e+00 1.547988e+00 
164 164 5.375084e+00 5.973641e+00 5.434011e+00 
165 165 6.287049e+00 2.776216e+00 2.172244e+00 
166 166 4.771910e+00 5.263425e+00 7.562365e+00 
167 167 9.243165e-02 4.619243e+00 6.651610e+00 
168 168 7.023061e+00 4.218106e+00 1.514730e+00 
169 169 2.903970e+00 7.603216e+00 3.546907e+00 
170 170 7.732427e+00 2.958069e+00 7.391706e+00 
171 171 2.587389e+00 2.426166e+00 4.372496e+00 
172 172 1.252808e+00 3.402736e+00 2.451050e+00 
173 173 6.604555e-01 8.481252e-01 1.095827e+00 
174 174 2.676743e+00 2.911771e+00 7.753100e+00 
175 175 3.315092e+00 3.873866e+00 6.493272e+00 
176 176 1.601124e+00 7.000454e+00 1.426474e+00 
177 177 3.870271e+00 5.082671e+00 6.075147e+00 
178 178 5.974788e+00 1.307088e+00 4.183782e+00 
179 179 3.276284e+00 1.880124e+00 2.493582e+00 
180 180 5.852366e+00 3.111504e+00 7.269753e+00 
181 181 7.839600e+00 3.219307e+00 4.932910e+00 
182 182 1.739610e+00 3.115166e+00 2.704885e-01 
183 183 4.661778e+00 6.678809e+00 4.716485e+00 
184 184 4.683739e+00 6.009885e+00 1.001969e+00 
185 185 5.515597e+00 3.552832e+00 5.171538e+00 
186 186 3.928790e+00 7.051577e+00 2.273473e-01 
187 187 4.794570e+00 2.874750e+00 5.827091e+00 
188 188 6.432424e+00 6.157070e+00 1.741122e+00 
189 189 5.214496e+00 5.987320e+00 2.180580e+00 
190 190 3.737714e+00 3.786829e+00 2.158161e+00 
191 191 1.251466e+00 5.046412e+00 7.346982e+00 
192 192 1.265928e+00 4.241538e+00 5.175729e+00 
193 193 7.184580e+00 3.982334e+00 7.002875e+00 
194 194 6.326386e-02 1.200455e-01 2.063439e+00 
195 195 2.793043e+00 5.597968e-01 6.720858e+00 
196 196 1.159747e+00 3.771899e-01 3.906576e+00 
197 197 3.822140e+00 1.766729e+00 1.526417e+00 
198 198 7.685226e+00 6.648738e+00 6.442818e+00 
199 199 7.094428e+00 5.528719e+00 9.202935e-01 
200 200 6.111712e+00 2.151869e+00 7.097036e+00 
201 201 9.272983e-01 3.478781e+00 4.189329e+00 
202 202 3.880745e-01 7.335938e+00 7.915288e+00 
203 203 3.976481e+00 4.756740e+00 3.201592e-01 
204 204 7.225558e+00 5.538089e+00 6.468463e+00 
205 205 7.764625e+00 6.438115e+00 3.361595e+00 
206 206 5.065028e+00 7.881843e+00 6.682459e+00 
207 207 1.811873e+00 3.763633e+00 1.081904e+00 
208 208 1.115226e-01 2.723900e+00 3.294175e+00 
209 209 1.444062e-01 7.755799e+00 1.022066e+00 
210 210 2.050323e+00 2.781325e+00 1.371180e+00 
211 211 4.397769e+00 1.842064e+00 5.194501e+00 
212 212 5.750561e+00 4.499398e+00 7.199639e+00 
213 213 5.623318e+00 3.611184e+00 2.505001e+00 
214 214 1.138283e+00 4.885497e+00 4.298554e+00 
215 215 6.118090e+00 3.531794e+00 3.379715e+00 
216 216 7.853720e+00 5.945840e+00 3.308386e-01 
217 217 7.967027e-01 2.375488e+00 5.795156e+00 
218 218 4.728068e+00 2.261723e-01 5.284985e-01 
219 219 2.064186e+00 5.294943e+00 2.252164e+00 
220 220 1.879966e+00 5.779042e+00 4.300306e+00 
221 221 6.407413e-02 5.772878e+00 7.342083e+00 
222 222 1.965325e+00 6.671004e+00 4.919601e+00 
223 223 2.812516e+00 6.446401e+00 7.462040e+00 
224 224 6.117701e-01 5.006387e-01 5.721365e+00 
225 225 6.234640e+00 5.203736e+00 2.197600e+00 
226 226 3.607519e+00 2.905697e+00 5.941797e+00 
227 227 5.161893e+00 4.844465e+00 5.099375e-01 
228 228 3.276387e+00 9.815214e-01 7.589790e+00 
229 229 3.422601e+00 4.431922e+00 5.324688e+00 
230 230 2.715348e+00 1.202176e-02 5.871626e+00 
231 231 5.425773e+00 5.455636e+00 4.233859e+00 
232 232 6.367270e+00 1.042262e+00 2.666589e-02 
233 233 4.864979e+00 1.577040e+00 3.899356e+00 
234 234 6.516309e+00 6.882071e+00 2.663407e+00 
235 235 3.693771e+00 4.269051e+00 1.201161e+00 
236 236 2.637762e+00 1.873640e+00 3.505874e+00 
237 237 4.958715e+00 2.098308e+00 7.094307e+00 
238 238 2.262175e+00 8.703496e-01 1.315420e+00 
239 239 7.365640e+00 5.071436e-01 5.654364e+00 
240 240 1.790669e+00 5.109991e-01 5.378288e+00 
241 241 7.495333e+00 2.343504e+00 1.003032e+00 
242 242 4.451102e+00 5.556359e-01 4.970292e+00 
243 243 6.197428e+00 1.462736e+00 2.301795e+00 
244 244 3.242462e+00 5.080000e+00 1.603066e+00 
245 245 7.774178e+00 7.908509e+00 4.786160e+00 
246 246 3.723700e+00 6.730764e+00 2.367498e+00 
247 247 1.917705e+00 7.352411e+00 6.303381e+00 
248 248 5.525739e+00 7.674336e+00 2.588859e+00 
249 249 1.092034e+00 3.732823e+00 7.544428e+00 
250 250 6.393304e+00 7.584666e+00 5.678994e-01 
251 251 2.656450e+00 2.228562e+00 5.222597e-01 
252 252 2.457426e+00 7.527365e+00 4.729070e+00 
253 253 1.831264e+00 6.837178e+00 2.450336e+00 
254 254 7.959880e+00 1.380900e+00 5.938381e-01 
255 255 2.394963e+00 6.628469e+00 3.713208e+00 
ITEM: TIMESTEP 
0 
ITEM: NUMBER OF ATOMS 
256 
ITEM: BOX BOUNDS 
0.000000e+00 8.000000e+00 xlo xhi 
0.000000e+00 8.000000e+00 xlo xhi 
0.000000e+00 8.000000e+00 xlo xhi 
ITEM: ATOMS id type x y z 
0 0 2.539444e+00 3.601793e+00 2.126280e+00 
1 1 2.813023e+00 5.491541e-01 5.025261e+00 
2 2 1.913391e+00 1.881922e+00 6.193102e+00 
3 3 6.150883e+00 6.890130e+00 6.220944e+00 
4 4 1.754571e+00 4.956890e+00 1.135917e+00 
5 5 2.175456e+00 4.378721e+00 7.709189e+00 
6 6 7.511969e+00 3.638291e-01 2.369599e-02 
7 7 6.247918e+00 4.844146e+00 8.918227e-01 
8 8 6.538770e+00 6.821392e+00 5.022387e+00 
9 9 4.364382e+00 4.701686e+00 1.867421e+00 
10 10 6.542300e+00 1.972631e+00 6.167996e-01 
11 11 4.107080e+00 4.007560e-01 2.051108e+00 
12 12 2.651241e+00 3.127414e+00 3.356643e+00 
13 13 1.055658e+00 4.036635e+00 6.482597e+00 
14 14 6.743865e-01 6.571348e+00 2.095459e+00 
15 15 7.699013e+00 5.173184e+00 1.916934e+00 
16 16 7.615091e-01 5.545040e+00 3.509396e+00 
17 17 2.479725e+00 5.404413e-01 3.352701e+00 
18 18 7.515769e+00 1.420952e+00 1.567130e+00 
19 19 6.989586e+00 2.662419e+00 5.240169e+00 
20 20 5.241655e-01 9.739639e-01 3.314688e+00 
21 21 5.466899e+00 7.840228e-01 7.135626e+00 
22 22 1.243517e-02 4.855419e+00 1.472682e-01 
23 23 3.799126e-01 1.116718e+00 2.026567e+00 
24 24 6.818873e+00 3.814875e+00 7.931688e+00 
25 25 5.156624e+00 5.136911e+00 6.355817e+00 
26 26 4.705757e+00 6.803677e+00 2.521790e+00 
27 27 9.013157e-01 7.824596e+00 6.411989e+00 
28 28 7.974521e+00 4.132362e+00 2.771294e+00 
29 29 2.531480e+00 3.207157e+00 5.224711e+00 
30 30 5.416803e+00 4.233496e+00 1.417708e+00 
31 31 8.575703e-01 2.346164e+00 6.807064e+00 
32 32 6.507763e+00 7.648435e+00 7.562170e+00 
33 33 6.410394e+00 3.700703e-01 5.006345e+00 
34 34 1.669185e+00 7.242271e+00 7.586834e+00 
35 35 7.617104e-01 3.509007e+00 1.209823e+00 
36 36 5.327943e+00 1.911282e+00 1.748205e+00 
37 37 7.713675e-01 6.615940e+00 4.104039e+00 
38 38 7.192240e+00 6.478083e+00 7.446715e+00 
39 39 3.949611e+00 5.948802e+00 7.379264e+00 
40 40 6.293178e+00 2.743836e+00 4.334463e+00 
41 41 8.009790e-01 2.089140e+00 4.459950e+00 
42 42 7.446120e+00 5.754784e+00 5.073350e+00 
43 43 5.820909e+00 6.399486e+00 4.558154e-01 
44 44 9.813475e-01 6.782572e+00 6.599616e-01 
45 45 2.251672e+00 5.118407e+00 5.168700e+00 
46 46 4.964049e+00 2.972447e+00 1.497630e+00 
47 47 2.614587e+00 4.747649e+00 3.134863e+00 
48 48 1.573544e+00 2.335666e+00 2.298405e+00 
49 49 9.508038e-01 5.895188e+00 6.621806e+00 
50 50 1.197156e-01 7.298528e+00 3.776481e+00 
51 51 4.519781e+00 6.760693e+00 3.592379e+00 
52 52 3.884429e+00 5.301396e-01 3.668946e+00 
53 53 1.905078e+00 7.697250e+00 3.644289e+00 
54 54 4.378833e+00 2.199214e+00 3.004113e+00 
55 55 5.915340e+00 3.454189e+00 6.219373e+00 
56 56 5.858629e+00 3.342276e-01 1.883960e+00 
57 57 6.948180e+00 5.545348e+00 3.184610e+00 
58 58 7.373834e+00 2.213020e+00 1.185092e-02 
59 59 2.625833e+00 6.790350e+00 5.995581e-01 
60 60 6.975139e+00 4.338978e+00 5.377685e+00 
61 61 3.780104e+00 3.084887e+00 4.962631e+00 
62 62 6.344332e+00 2.937910e+00 1.475916e-01 
63 63 5.715961e+00 5.481711e+00 7.320549e+00 
64 64 5.740576e+00 3.783820e-01 7.277858e-01 
65 65 3.128951e+00 3.082080e+00 1.310493e+00 
66 66 7.109532e+00 4.002422e+00 3.491807e+00 
67 67 2.839328e+00 2.396081e+00 6.606135e+00 
68 68 3.014805e+00 7.440316e+00 6.756986e+00 
69 69 5.783615e+00 5.996144e+00 3.440059e+00 
70 70 5.995347e+00 4.594247e+00 4.682811e+00 
71 71 4.130856e+00 1.511619e+00 6.930793e+00 
72 72 3.266286e+00 5.559274e+00 2.412933e-01 
73 73 3.959436e+00 8.267136e-02 7.567912e+00 
74 74 1.482615e+00 7.551199e+00 5.036368e+00 
75 75 7.127066e+00 3.226230e+00 1.277192e+00 
76 76 3.715145e+00 6.476158e+00 5.811924e+00 
77 77 1.302075e+00 2.153526e+00 6.495877e-01 
78 78 7.571078e+00 6.723819e+00 1.072769e+00 
79 79 4.576170e+00 3.552439e+00 4.488526e+00 
80 80 4.950089e+00 7.814427e+00 1.705137e+00 
81 81 3.489927e+00 6.946932e+00 4.042359e+00 
82 82 3.435123e+00 4.474603e+00 7.371125e+00 
83 83 7.549737e+00 7.852581e+00 6.723449e+00 
84 84 5.179383e+00 4.176301e-02 3.822888e+00 
85 85 7.102385e+00 1.094018e+00 4.629451e+00 
86 86 4.967646e+00 4.158375e+00 7.766717e+00 
87 87 3.611834e+00 4.167977e+00 3.687076e+00 
88 88 3.020088e+00 7.492807e+00 2.290170e+00 
89 89 7.255322e+00 3.557076e-01 1.449507e+00 
90 90 4.449625e+00 4.519206e+00 5.256213e+00 
91 91 4.388336e+00 3.632773e+00 6.413421e+00 
92 92 3.083484e+00 5.954173e+00 2.276971e+00 
93 93 2.566929e+00 4.847503e+00 6.747390e+00 
94 94 6.790714e+00 4.930114e+00 7.206911e+00 
95 95 1.218704e+00 1.382876e+00 5.054868e+00 
96 96 3.851244e+00 1.676358e+00 7.758411e-02 
97 97 7.968977e+00 3.542889e+00 3.393677e-01 
98 98 5.178417e+00 1.626829e+00 3.969125e-01 
99 99 2.534976e+00 9.426958e-01 3.077084e-01 
100 100 3.690995e+00 5.433117e+00 4.943313e+00 
101 101 3.982354e+00 2.074088e+00 4.043785e+00 
102 102 1.662167e+00 1.848959e+00 7.227902e+00 
103 103 4.358580e+00 7.195473e+00 6.126252e+00 
104 104 5.308699e+00 2.000422e+00 5.702225e+00 
105 105 2.614936e+00 5.815984e+00 6.017389e+00 
106 106 5.854551e+00 2.075874e+00 3.045514e+00 
107 107 4.998197e+00 6.722565e+00 7.142755e+00 
108 108 1.494642e+00 2.379441e+00 3.525829e+00 
109 109 3.383514e+00 2.136756e+00 5.170639e+00 
110 110 2.173808e+00 1.368252e+00 2.376869e+00 
111 111 7.978004e+00 2.983744e+00 5.916335e+00 
112 112 5.527623e-01 4.341498e+00 1.778759e+00 
113 113 7.097992e+00 7.221456e+00 3.914764e+00 