ITEM: TIMESTEP 
0 
ITEM: NUMBER OF ATOMS 
256 
ITEM: BOX BOUNDS 
0.000000e+00 8.000000e+00 xlo xhi 
0.000000e+00 8.000000e+00 xlo xhi 
0.000000e+00 8.000000e+00 xlo xhi 
ITEM: ATOMS id type x y z 
0 0 2.526553e+00 3.622908e+00 2.135334e+00 
1 1 2.819867e+00 5.415955e-01 5.012118e+00 
2 2 1.898667e+00 1.883753e+00 6.194978e+00 
3 3 6.141611e+00 6.907216e+00 6.221110e+00 
4 4 1.741019e+00 4.962157e+00 1.130384e+00 
5 5 2.183877e+00 4.391813e+00 7.720353e+00 
6 6 7.506970e+00 3.777006e-01 1.806686e-02 
7 7 6.263228e+00 4.844930e+00 8.962312e-01 
8 8 6.526723e+00 6.835610e+00 5.018705e+00 
9 9 4.348598e+00 4.716909e+00 1.854598e+00 
10 10 6.545001e+00 1.967069e+00 6.099492e-01 
11 11 4.098033e+00 4.038306e-01 2.053825e+00 
12 12 2.650068e+00 3.138889e+00 3.376808e+00 
13 13 1.074476e+00 4.055283e+00 6.472321e+00 
14 14 6.920730e-01 6.594355e+00 2.086148e+00 
15 15 7.712751e+00 5.190328e+00 1.909853e+00 
16 16 7.638707e-01 5.559653e+00 3.505673e+00 
17 17 2.471970e+00 5.419822e-01 3.350434e+00 
18 18 7.513531e+00 1.444077e+00 1.556739e+00 
19 19 7.005607e+00 2.657661e+00 5.247405e+00 
20 20 5.113043e-01 9.954613e-01 3.320434e+00 
21 21 5.463208e+00 8.045658e-01 7.146494e+00 
22 22 1.061827e-02 4.844540e+00 1.691250e-01 
23 23 3.757358e-01 1.133012e+00 2.016778e+00 
24 24 6.814236e+00 3.824125e+00 7.922913e+00 
25 25 5.159826e+00 5.137948e+00 6.374929e+00 
26 26 4.717450e+00 6.802455e+00 2.529888e+00 
27 27 9.184275e-01 7.840465e+00 6.408636e+00 
28 28 7.987437e+00 4.131386e+00 2.763614e+00 
29 29 2.514671e+00 3.204418e+00 5.216378e+00 
30 30 5.416139e+00 4.249761e+00 1.403269e+00 
31 31 8.655121e-01 2.334688e+00 6.822245e+00 
32 32 6.517998e+00 7.669113e+00 7.555704e+00 
33 33 6.428642e+00 3.709767e-01 5.013757e+00 
34 34 1.685941e+00 7.248805e+00 7.598346e+00 
35 35 7.476701e-01 3.521238e+00 1.212227e+00 
36 36 5.313851e+00 1.916800e+00 1.735013e+00 
37 37 7.700298e-01 6.626619e+00 4.106692e+00 
38 38 7.190454e+00 6.489631e+00 7.431267e+00 
39 39 3.936973e+00 5.958551e+00 7.372766e+00 
40 40 6.311453e+00 2.761886e+00 4.341978e+00 
41 41 7.930299e-01 2.095886e+00 4.471667e+00 
42 42 7.455282e+00 5.778348e+00 5.067712e+00 
43 43 5.803586e+00 6.404128e+00 4.578250e-01 
44 44 9.694127e-01 6.793486e+00 6.637578e-01 
45 45 2.266216e+00 5.134374e+00 5.159921e+00 
46 46 4.951338e+00 2.962369e+00 1.488489e+00 
47 47 2.602804e+00 4.746320e+00 3.124882e+00 
48 48 1.569793e+00 2.345830e+00 2.306388e+00 
49 49 9.701006e-01 5.910512e+00 6.633951e+00 
50 50 1.020160e-01 7.304743e+00 3.798086e+00 
51 51 4.525231e+00 6.751482e+00 3.582894e+00 
52 52 3.887832e+00 5.343243e-01 3.663812e+00 
53 53 1.900063e+00 7.712342e+00 3.652440e+00 
54 54 4.391720e+00 2.223595e+00 2.995878e+00 
55 55 5.926005e+00 3.451805e+00 6.223614e+00 
56 56 5.851378e+00 3.614346e-01 1.895586e+00 
57 57 6.946797e+00 5.550985e+00 3.191456e+00 
58 58 7.366385e+00 2.231291e+00 8.053926e-03 
59 59 2.610327e+00 6.784184e+00 5.930588e-01 
60 60 6.981285e+00 4.365134e+00 5.383059e+00 
61 61 3.787603e+00 3.095249e+00 4.960722e+00 
62 62 6.332345e+00 2.934243e+00 1.526430e-01 
63 63 5.721798e+00 5.501130e+00 7.310344e+00 
64 64 5.747864e+00 4.028021e-01 7.236390e-01 
65 65 3.121294e+00 3.085556e+00 1.298834e+00 
66 66 7.115307e+00 4.009192e+00 3.493497e+00 
67 67 2.826561e+00 2.410714e+00 6.595538e+00 
68 68 3.022188e+00 7.463636e+00 6.765269e+00 
69 69 5.792931e+00 5.992137e+00 3.435668e+00 
70 70 6.000837e+00 4.609335e+00 4.668935e+00 
71 71 4.139234e+00 1.535857e+00 6.917992e+00 
72 72 3.270648e+00 5.578310e+00 2.484874e-01 
73 73 3.976235e+00 1.039823e-01 7.587010e+00 
74 74 1.499431e+00 7.572988e+00 5.027957e+00 
75 75 7.140897e+00 3.246700e+00 1.270622e+00 
76 76 3.723933e+00 6.464561e+00 5.814103e+00 
77 77 1.311973e+00 2.153736e+00 6.467417e-01 
78 78 7.567817e+00 6.726670e+00 1.088052e+00 
79 79 4.563283e+00 3.567217e+00 4.506069e+00 
80 80 4.960683e+00 7.830056e+00 1.717353e+00 
81 81 3.494658e+00 6.936490e+00 4.026527e+00 
82 82 3.425055e+00 4.483100e+00 7.362225e+00 
83 83 7.565303e+00 7.841632e+00 6.743358e+00 
84 84 5.198195e+00 5.279327e-02 3.840729e+00 
85 85 7.106975e+00 1.090163e+00 4.624022e+00 
86 86 4.987903e+00 4.167563e+00 7.771273e+00 
87 87 3.611050e+00 4.182035e+00 3.677308e+00 
88 88 3.018004e+00 7.491491e+00 2.290502e+00 
89 89 7.256507e+00 3.664586e-01 1.464305e+00 
90 90 4.468141e+00 4.529594e+00 5.242720e+00 
91 91 4.387665e+00 3.637693e+00 6.421690e+00 
92 92 3.079579e+00 5.945794e+00 2.263554e+00 
93 93 2.558778e+00 4.843758e+00 6.734301e+00 
94 94 6.794107e+00 4.931907e+00 7.214343e+00 
95 95 1.231725e+00 1.372568e+00 5.050524e+00 
96 96 3.847504e+00 1.696960e+00 8.957371e-02 
97 97 7.985204e+00 3.535841e+00 3.349602e-01 
98 98 5.163300e+00 1.624239e+00 4.148721e-01 
99 99 2.549378e+00 9.480803e-01 3.095777e-01 
100 100 3.706819e+00 5.440569e+00 4.947839e+00 
101 101 3.998910e+00 2.071530e+00 4.042701e+00 
102 102 1.659253e+00 1.849456e+00 7.216656e+00 
103 103 4.354893e+00 7.208882e+00 6.127727e+00 
104 104 5.310974e+00 1.996503e+00 5.723814e+00 
105 105 2.631033e+00 5.812549e+00 6.026710e+00 
106 106 5.865466e+00 2.079166e+00 3.054436e+00 
107 107 4.982008e+00 6.718658e+00 7.159848e+00 
108 108 1.498924e+00 2.392054e+00 3.530184e+00 
109 109 3.398058e+00 2.132475e+00 5.166744e+00 
110 110 2.167827e+00 1.380240e+00 2.391976e+00 
111 111 7.996953e+00 2.987160e+00 5.927613e+00 
112 112 5.679375e-01 4.336488e+00 1.770870e+00 
113 113 7.109027e+00 7.216190e+00 3.930966e+00 
114 114 9.020759e-01 6.657540e+00 5.758078e+00 
115 115 1.522006e+00 3.126468e+00 6.204868e+00 
116 116 5.167280e+00 7.598941e+00 4.951641e+00 
117 117 2.810352e+00 5.506425e+00 3.819682e+00 
118 118 1.218027e+00 7.958089e+00 1.015635e+00 
119 119 1.743384e+00 2.385673e+00 4.925271e+00 
120 120 2.087991e+00 5.911433e+00 3.058847e+00 
121 121 6.639926e+00 2.285457e+00 6.159830e+00 
122 122 8.392615e-01 5.399032e+00 5.601074e+00 
123 123 2.255269e+00 4.099724e+00 4.517822e+00 
124 124 2.952258e-01 4.125153e+00 4.624632e+00 
125 125 7.085064e+00 1.243407e+00 3.350574e+00 
126 126 3.814676e+00 1.153113e+00 5.991985e+00 
127 127 3.473922e+00 3.311258e-01 4.854003e-01 
128 128 3.485293e+00 7.503533e+00 5.174606e+00 
129 129 4.205760e+00 5.696007e+00 2.797440e+00 
130 130 3.318898e+00 6.220842e+00 1.255308e+00 
131 131 4.699906e+00 3.857449e+00 3.365736e+00 
132 132 5.283141e+00 7.125555e+00 1.034893e+00 
133 133 7.155733e-01 5.422570e+00 6.302658e-01 
134 134 7.587589e+00 2.794456e+00 2.267979e+00 
135 135 5.979539e+00 7.434450e+00 3.626793e+00 
136 136 7.573148e+00 6.570608e+00 2.156650e+00 
137 137 1.891111e+00 6.204571e+00 7.417948e-02 
138 138 6.176284e+00 5.378772e+00 6.124621e+00 
139 139 7.384455e+00 7.859031e+00 3.069841e+00 
140 140 5.182923e+00 8.399260e-01 5.767929e+00 
141 141 5.364866e+00 4.842391e+00 3.340200e+00 
142 142 4.976747e+00 2.698680e+00 4.194018e+00 
143 143 4.163849e+00 3.330579e+00 1.372601e-01 
144 144 9.608908e-01 7.233703e+00 3.012778e+00 
145 145 7.768499e+00 2.306820e+00 4.484325e+00 
146 146 7.726834e+00 1.466352e+00 6.014463e+00 
147 147 3.109309e+00 1.552809e+00 4.356066e+00 
148 148 7.721377e-01 1.884430e+00 2.736726e+00 
149 149 2.770787e+00 6.046080e+00 4.772250e+00 
150 150 6.268290e+00 4.413263e-01 6.618283e+00 
151 151 1.724125e+00 7.839462e-01 6.512955e+00 
152 152 3.512006e-01 8.447119e-01 6.875363e+00 
153 153 1.699540e+00 7.937697e-02 2.401899e+00 
154 154 7.473604e+00 5.177835e+00 4.172857e+00 
155 155 3.813142e-01 1.033150e+00 4.532488e+00 
156 156 5.768951e-01 2.617505e+00 2.035661e+00 
157 157 1.182482e+00 8.088440e-01 1.884559e-01 
158 158 5.645770e+00 1.012751e+00 3.038732e+00 
159 159 3.010811e+00 3.698478e+00 4.876653e-01 
160 160 5.099407e-03 7.621924e+00 5.781952e+00 
161 161 1.277586e+00 4.700019e+00 3.243975e+00 
162 162 6.719604e+00 4.336164e+00 2.525971e+00 
163 163 6.161531e+00 7.356558e+00 1.548230e+00 
164 164 5.376287e+00 5.975103e+00 5.433738e+00 
165 165 6.288169e+00 2.776937e+00 2.173443e+00 
166 166 4.773319e+00 5.264352e+00 7.561590e+00 
167 167 9.394620e-02 4.618907e+00 6.652618e+00 
168 168 7.023123e+00 4.219072e+00 1.514262e+00 
169 169 2.903912e+00 7.603017e+00 3.547225e+00 
170 170 7.733089e+00 2.959622e+00 7.393437e+00 
171 171 2.585754e+00 2.428148e+00 4.372073e+00 
172 172 1.251717e+00 3.401684e+00 2.451020e+00 
173 173 6.622166e-01 8.474409e-01 1.095629e+00 
174 174 2.675499e+00 2.910952e+00 7.754951e+00 
175 175 3.314179e+00 3.873121e+00 6.492137e+00 
176 176 1.602738e+00 7.000220e+00 1.425468e+00 
177 177 3.869992e+00 5.084218e+00 6.073919e+00 
178 178 5.974204e+00 1.306245e+00 4.185066e+00 
179 179 3.275213e+00 1.879811e+00 2.495258e+00 
180 180 5.853203e+00 3.110757e+00 7.269008e+00 
181 181 7.840568e+00 3.218064e+00 4.932339e+00 
182 182 1.740653e+00 3.115413e+00 2.716346e-01 
183 183 4.660395e+00 6.679978e+00 4.717538e+00 
184 184 4.683026e+00 6.010503e+00 1.000637e+00 
185 185 5.515093e+00 3.552330e+00 5.170416e+00 
186 186 3.929346e+00 7.051393e+00 2.275813e-01 
187 187 4.795557e+00 2.873998e+00 5.826565e+00 
188 188 6.432591e+00 6.155712e+00 1.742691e+00 
189 189 5.214219e+00 5.987332e+00 2.181017e+00 
190 190 3.737873e+00 3.787012e+00 2.158907e+00 
191 191 1.250139e+00 5.045315e+00 7.347699e+00 
192 192 1.266802e+00 4.241354e+00 5.177612e+00 
193 193 7.185309e+00 3.981751e+00 7.002548e+00 
194 194 6.464613e-02 1.187068e-01 2.064309e+00 
195 195 2.791592e+00 5.597841e-01 6.722010e+00 
196 196 1.159230e+00 3.782151e-01 3.905572e+00 
197 197 3.821458e+00 1.767172e+00 1.527427e+00 
198 198 7.685262e+00 6.649331e+00 6.444300e+00 
199 199 7.093391e+00 5.528529e+00 9.203027e-01 
200 200 6.111317e+00 2.151717e+00 7.096780e+00 
201 201 9.286048e-01 3.479281e+00 4.189139e+00 
202 202 3.885617e-01 7.335903e+00 7.913658e+00 
203 203 3.974956e+00 4.758772e+00 3.213581e-01 
204 204 7.227150e+00 5.536687e+00 6.467963e+00 
205 205 7.766067e+00 6.437996e+00 3.360028e+00 
206 206 5.065365e+00 7.883619e+00 6.681905e+00 
207 207 1.811385e+00 3.762413e+00 1.080428e+00 
208 208 1.108104e-01 2.725204e+00 3.295450e+00 
209 209 1.457393e-01 7.755334e+00 1.021748e+00 
210 210 2.051471e+00 2.780314e+00 1.370352e+00 
211 211 4.396602e+00 1.842808e+00 5.195621e+00 
212 212 5.749192e+00 4.499059e+00 7.198436e+00 
213 213 5.623656e+00 3.610120e+00 2.504345e+00 
214 214 1.137149e+00 4.885196e+00 4.298238e+00 
215 215 6.117636e+00 3.530414e+00 3.378863e+00 
216 216 7.854060e+00 5.945185e+00 3.294668e-01 
217 217 7.955720e-01 2.375420e+00 5.796586e+00 
218 218 4.729170e+00 2.277190e-01 5.289935e-01 
219 219 2.063428e+00 5.295084e+00 2.253796e+00 
220 220 1.879745e+00 5.780722e+00 4.300944e+00 
221 221 6.332558e-02 5.773232e+00 7.343442e+00 
222 222 1.964285e+00 6.672966e+00 4.920824e+00 
223 223 2.810840e+00 6.448187e+00 7.460938e+00 
224 224 6.106421e-01 4.996523e-01 5.720605e+00 
225 225 6.234185e+00 5.202532e+00 2.196872e+00 
226 226 3.608243e+00 2.904926e+00 5.941760e+00 
227 227 5.162146e+00 4.845528e+00 5.103614e-01 
228 228 3.277851e+00 9.813172e-01 7.590530e+00 
229 229 3.421464e+00 4.430553e+00 5.325530e+00 
230 230 2.716915e+00 1.132120e-02 5.871128e+00 
231 231 5.424826e+00 5.455143e+00 4.235573e+00 
232 232 6.366526e+00 1.043875e+00 2.819957e-02 
233 233 4.864637e+00 1.576440e+00 3.898118e+00 
234 234 6.517134e+00 6.883454e+00 2.662117e+00 
235 235 3.692505e+00 4.268176e+00 1.199756e+00 
236 236 2.637877e+00 1.874864e+00 3.506294e+00 
237 237 4.959112e+00 2.098849e+00 7.095550e+00 
238 238 2.262439e+00 8.694544e-01 1.317078e+00 
239 239 7.364896e+00 5.087960e-01 5.655513e+00 
240 240 1.791916e+00 5.130203e-01 5.377979e+00 
241 241 7.494741e+00 2.343680e+00 1.002508e+00 
242 242 4.449545e+00 5.542841e-01 4.969730e+00 
243 243 6.196602e+00 1.462202e+00 2.301134e+00 
244 244 3.242232e+00 5.081686e+00 1.602844e+00 
245 245 7.775299e+00 7.910203e+00 4.787509e+00 
246 246 3.725474e+00 6.732271e+00 2.367363e+00 
247 247 1.917399e+00 7.354128e+00 6.302894e+00 
248 248 5.526553e+00 7.675626e+00 2.588092e+00 
249 249 1.091982e+00 3.733602e+00 7.544349e+00 
250 250 6.393526e+00 7.583326e+00 5.664978e-01 
251 251 2.654993e+00 2.227999e+00 5.206560e-01 
252 252 2.456383e+00 7.526915e+00 4.730869e+00 
253 253 1.830867e+00 6.836299e+00 2.449016e+00 
254 254 7.961574e+00 1.381713e+00 5.931428e-01 
255 255 2.394073e+00 6.630087e+00 3.712845e+00 
ITEM: TIMESTEP 
0 
ITEM: NUMBER OF ATOMS 
256 
ITEM: BOX BOUNDS 
0.000000e+00 8.000000e+00 xlo xhi 
0.000000e+00 8.000000e+00 xlo xhi 
0.000000e+00 8.000000e+00 xlo xhi 
ITEM: ATOMS id type x y z 
0 0 2.527895e+00 3.621598e+00 2.134844e+00 
1 1 2.819637e+00 5.429438e-01 5.013393e+00 
2 2 1.900225e+00 1.884263e+00 6.194963e+00 
3 3 6.142616e+00 6.906316e+00 6.221308e+00 
4 4 1.742527e+00 4.962291e+00 1.130965e+00 
5 5 2.183132e+00 4.391257e+00 7.719445e+00 
6 6 7.507550e+00 3.769857e-01 1.860029e-02 
7 7 6.261916e+00 4.845416e+00 8.959088e-01 
8 8 6.528009e+00 6.834882e+00 5.019077e+00 
9 9 4.350283e+00 4.716208e+00 1.856012e+00 
10 10 6.544607e+00 1.968171e+00 6.108414e-01 
11 11 4.098916e+00 4.042542e-01 2.053741e+00 
12 12 2.650363e+00 3.138638e+00 3.375049e+00 
13 13 1.072954e+00 4.054317e+00 6.473411e+00 
14 14 6.906218e-01 6.592932e+00 2.087134e+00 
15 15 7.711691e+00 5.189316e+00 1.910789e+00 
16 16 7.636936e-01 5.558842e+00 3.506140e+00 
17 17 2.472815e+00 5.425696e-01 3.350621e+00 
18 18 7.513767e+00 1.442603e+00 1.557957e+00 
19 19 7.004178e+00 2.658685e+00 5.246907e+00 
20 20 5.125450e-01 9.940444e-01 3.319973e+00 
21 21 5.463705e+00 8.033320e-01 7.145719e+00 
22 22 1.092210e-02 4.846027e+00 1.673369e-01 
23 23 3.762396e-01 1.132104e+00 2.017692e+00 
24 24 6.814767e+00 3.823844e+00 7.923789e+00 
25 25 5.159570e+00 5.138462e+00 6.373249e+00 
26 26 4.716403e+00 6.803199e+00 2.529210e+00 
27 27 9.169846e-01 7.839596e+00 6.409234e+00 
28 28 7.986420e+00 4.131950e+00 2.764437e+00 
29 29 2.516415e+00 3.205367e+00 5.217266e+00 
30 30 5.416364e+00 4.248748e+00 1.404846e+00 
31 31 8.649692e-01 2.336306e+00 6.821260e+00 
32 32 6.517195e+00 7.667803e+00 7.556267e+00 
33 33 6.427170e+00 3.713693e-01 5.013286e+00 
34 34 1.684618e+00 7.248856e+00 7.597556e+00 
35 35 7.490913e-01 3.520973e+00 1.212111e+00 
36 36 5.315256e+00 1.916920e+00 1.736296e+00 
37 37 7.702667e-01 6.626249e+00 4.106706e+00 
38 38 7.190663e+00 6.489233e+00 7.432908e+00 
39 39 3.938351e+00 5.958461e+00 7.373518e+00 
40 40 6.310057e+00 2.760850e+00 4.341444e+00 
41 41 7.939153e-01 2.095895e+00 4.470697e+00 
42 42 7.454525e+00 5.776949e+00 5.068365e+00 
43 43 5.805229e+00 6.404248e+00 4.577984e-01 
44 44 9.708086e-01 6.793107e+00 6.635928e-01 
45 45 2.265047e+00 5.133411e+00 5.160943e+00 
46 46 4.952671e+00 2.963863e+00 1.489373e+00 
47 47 2.604044e+00 4.746756e+00 3.125930e+00 
48 48 1.570369e+00 2.345473e+00 2.305718e+00 
49 49 9.685567e-01 5.909630e+00 6.633064e+00 
50 50 1.038023e-01 7.304664e+00 3.796417e+00 
51 51 4.525036e+00 6.752966e+00 3.584037e+00 
52 52 3.887717e+00 5.345719e-01 3.664457e+00 
53 53 1.900768e+00 7.711557e+00 3.651785e+00 
54 54 4.390652e+00 2.221912e+00 2.996602e+00 
55 55 5.925244e+00 3.452630e+00 6.223419e+00 
56 56 5.852193e+00 3.598108e-01 1.894690e+00 
57 57 6.947035e+00 5.550964e+00 3.191126e+00 
58 58 7.367236e+00 2.230276e+00 8.624107e-03 
59 59 2.611974e+00 6.785505e+00 5.939273e-01 
60 60 6.980844e+00 4.363358e+00 5.382676e+00 
61 61 3.787141e+00 3.094990e+00 4.961223e+00 
62 62 6.333425e+00 2.935142e+00 1.524272e-01 
63 63 5.721367e+00 5.500041e+00 7.311506e+00 
64 64 5.747346e+00 4.011971e-01 7.241924e-01 
65 65 3.122289e+00 3.085662e+00 1.300067e+00 
66 66 7.114977e+00 4.009111e+00 3.493617e+00 
67 67 2.827981e+00 2.409996e+00 6.596700e+00 
68 68 3.021825e+00 7.462168e+00 6.764779e+00 
69 69 5.792341e+00 5.993096e+00 3.436422e+00 
70 70 6.000613e+00 4.608487e+00 4.670363e+00 
71 71 4.138723e+00 1.534299e+00 6.919452e+00 
72 72 3.270357e+00 5.577192e+00 2.481172e-01 
73 73 3.975008e+00 1.026012e-01 7.585460e+00 
74 74 1.498044e+00 7.571564e+00 5.028904e+00 
75 75 7.139711e+00 3.245528e+00 1.271405e+00 
76 76 3.723412e+00 6.466291e+00 5.814085e+00 
77 77 1.311165e+00 2.154275e+00 6.472440e-01 
78 78 7.568162e+00 6.727010e+00 1.086759e+00 
79 79 4.564714e+00 3.566595e+00 4.504501e+00 
80 80 4.959707e+00 7.829284e+00 1.716329e+00 
81 81 3.494486e+00 6.938098e+00 4.028055e+00 
82 82 3.426164e+00 4.482939e+00 7.363221e+00 
83 83 7.563934e+00 7.843268e+00 6.741723e+00 
84 84 5.196611e+00 5.227873e-02 3.839214e+00 
85 85 7.106585e+00 1.091181e+00 4.624734e+00 
86 86 4.986339e+00 4.167195e+00 7.771012e+00 
87 87 3.611277e+00 4.181309e+00 3.678387e+00 
88 88 3.018371e+00 7.492426e+00 2.290448e+00 
89 89 7.256395e+00 3.661192e-01 1.463079e+00 
90 90 4.466771e+00 4.529401e+00 5.244065e+00 
91 91 4.387980e+00 3.637939e+00 6.421167e+00 
92 92 3.080192e+00 5.947201e+00 2.264978e+00 
93 93 2.559594e+00 4.844832e+00 6.735541e+00 
94 94 6.793909e+00 4.932224e+00 7.213908e+00 
95 95 1.230660e+00 1.374164e+00 5.051122e+00 
96 96 3.848152e+00 1.695730e+00 8.878512e-02 
97 97 7.983829e+00 3.537065e+00 3.355881e-01 
98 98 5.164788e+00 1.625081e+00 4.134871e-01 
99 99 2.548121e+00 9.480446e-01 3.096610e-01 
100 100 3.705534e+00 5.440464e+00 4.947372e+00 
101 101 3.997661e+00 2.072326e+00 4.042907e+00 
102 102 1.659622e+00 1.849994e+00 7.218057e+00 
103 103 4.355405e+00 7.208309e+00 6.127764e+00 
104 104 5.311077e+00 1.997291e+00 5.721989e+00 
105 105 2.629679e+00 5.813588e+00 6.026100e+00 
106 106 5.864648e+00 2.079649e+00 3.054002e+00 
107 107 4.983660e+00 6.719702e+00 7.158467e+00 
108 108 1.498807e+00 2.391689e+00 3.529887e+00 
109 109 3.396820e+00 2.133385e+00 5.167408e+00 
110 110 2.168540e+00 1.379767e+00 2.390699e+00 
111 111 7.995222e+00 2.987526e+00 5.926797e+00 
112 112 5.667494e-01 4.337467e+00 1.771836e+00 
113 113 7.108043e+00 7.217290e+00 3.929794e+00 
114 114 9.015754e-01 6.658468e+00 5.756671e+00 
115 115 1.521347e+00 3.124592e+00 6.204497e+00 
116 116 5.166449e+00 7.598008e+00 4.953235e+00 
117 117 2.811869e+00 5.508010e+00 3.818589e+00 
118 118 1.219514e+00 7.959433e+00 1.013902e+00 
119 119 1.742410e+00 2.386675e+00 4.923737e+00 
120 120 2.087392e+00 5.911387e+00 3.057722e+00 
121 121 6.638502e+00 2.284272e+00 6.158585e+00 
122 122 8.407207e-01 5.399379e+00 5.599670e+00 
123 123 2.253934e+00 4.099927e+00 4.518296e+00 
124 124 2.951758e-01 4.125985e+00 4.624086e+00 
125 125 7.085840e+00 1.241916e+00 3.349464e+00 
126 126 3.814666e+00 1.151863e+00 5.990935e+00 
127 127 3.472930e+00 3.319164e-01 4.856609e-01 
128 128 3.484583e+00 7.502558e+00 5.175105e+00 
129 129 4.205824e+00 5.696339e+00 2.796580e+00 
130 130 3.318007e+00 6.220972e+00 1.256616e+00 
131 131 4.698470e+00 3.858881e+00 3.365664e+00 
132 132 5.284750e+00 7.124694e+00 1.036293e+00 
133 133 7.153921e-01 5.422704e+00 6.286094e-01 
134 134 7.588683e+00 2.792777e+00 2.268769e+00 
135 135 5.978538e+00 7.435173e+00 3.627857e+00 
136 136 7.573337e+00 6.570056e+00 2.156862e+00 
137 137 1.891305e+00 6.203378e+00 7.517860e-02 
138 138 6.175167e+00 5.378065e+00 6.125212e+00 
139 139 7.385034e+00 7.858783e+00 3.070832e+00 
140 140 5.184392e+00 8.399549e-01 5.766388e+00 
141 141 5.365240e+00 4.842419e+00 3.338882e+00 
142 142 4.976602e+00 2.699228e+00 4.195101e+00 
143 143 4.164426e+00 3.329224e+00 1.387304e-01 
144 144 9.603215e-01 7.232234e+00 3.013637e+00 
145 145 7.768485e+00 2.307432e+00 4.482642e+00 
146 146 7.726910e+00 1.466431e+00 6.016054e+00 
147 147 3.108931e+00 1.553379e+00 4.354998e+00 
148 148 7.718153e-01 1.883837e+00 2.735155e+00 
149 149 2.769711e+00 6.047587e+00 4.772224e+00 
150 150 6.269127e+00 4.415170e-01 6.619243e+00 
151 151 1.724362e+00 7.830399e-01 6.511868e+00 
152 152 3.501809e-01 8.463461e-01 6.873732e+00 
153 153 1.699814e+00 7.838428e-02 2.401865e+00 
154 154 7.474503e+00 5.176507e+00 4.174117e+00 
155 155 3.808395e-01 1.031509e+00 4.532469e+00 
156 156 5.776691e-01 2.618642e+00 2.036429e+00 
157 157 1.182952e+00 8.100953e-01 1.871228e-01 
158 158 5.644436e+00 1.011887e+00 3.039240e+00 
159 159 3.011628e+00 3.698316e+00 4.869972e-01 
160 160 4.250602e-03 7.622152e+00 5.780951e+00 
161 161 1.277654e+00 4.699325e+00 3.244889e+00 
162 162 6.719490e+00 4.337369e+00 2.524813e+00 
163 163 6.162555e+00 7.358155e+00 1.548016e+00 
164 164 5.374880e+00 5.974045e+00 5.433900e+00 
165 165 6.287050e+00 2.776344e+00 2.172417e+00 
166 166 4.772050e+00 5.263641e+00 7.562547e+00 
167 167 9.237885e-02 4.619351e+00 6.651595e+00 
168 168 7.023161e+00 4.218422e+00 1.514760e+00 
169 169 2.903907e+00 7.603538e+00 3.546941e+00 
170 170 7.732429e+00 2.958505e+00 7.391631e+00 
171 171 2.587298e+00 2.426477e+00 4.372713e+00 
172 172 1.252975e+00 3.402874e+00 2.451092e+00 
173 173 6.606481e-01 8.483806e-01 1.095807e+00 
174 174 2.676777e+00 2.912128e+00 7.753283e+00 
175 175 3.315335e+00 3.874064e+00 6.493288e+00 
176 176 1.601116e+00 7.000473e+00 1.426566e+00 
177 177 3.870539e+00 5.082907e+00 6.075329e+00 
178 178 5.974697e+00 1.307409e+00 4.183970e+00 
179 179 3.276324e+00 1.880581e+00 2.493640e+00 
180 180 5.852337e+00 3.111756e+00 7.269616e+00 
181 181 7.839603e+00 3.219531e+00 4.932806e+00 
182 182 1.739693e+00 3.115522e+00 2.704176e-01 
183 183 4.661957e+00 6.679005e+00 4.716483e+00 
184 184 4.683810e+00 6.010112e+00 1.002073e+00 
185 185 5.515440e+00 3.553005e+00 5.171621e+00 
186 186 3.928876e+00 7.051785e+00 2.274080e-01 
187 187 4.794663e+00 2.874974e+00 5.827095e+00 
188 188 6.432712e+00 6.157230e+00 1.740966e+00 
189 189 5.214538e+00 5.987678e+00 2.180631e+00 
190 190 3.737698e+00 3.787066e+00 2.158083e+00 
191 191 1.251543e+00 5.046856e+00 7.346955e+00 
192 192 1.265853e+00 4.241924e+00 5.175869e+00 
193 193 7.184621e+00 3.982510e+00 7.003117e+00 
194 194 6.344937e-02 1.203310e-01 2.063673e+00 
195 195 2.793114e+00 5.602291e-01 6.720988e+00 
196 196 1.159837e+00 3.774864e-01 3.906680e+00 
197 197 3.822301e+00 1.766828e+00 1.526490e+00 
198 198 7.685467e+00 6.649046e+00 6.442717e+00 
199 199 7.094586e+00 5.528736e+00 9.204764e-01 
200 200 6.111808e+00 2.152168e+00 7.097042e+00 
201 201 9.274025e-01 3.479212e+00 4.189444e+00 
202 202 3.881374e-01 7.336282e+00 7.915259e+00 
203 203 3.976616e+00 4.757141e+00 3.201780e-01 
204 204 7.225548e+00 5.538318e+00 6.468606e+00 
205 205 7.764800e+00 6.438356e+00 3.361535e+00 
206 206 5.064891e+00 7.882212e+00 6.682645e+00 
207 207 1.811757e+00 3.763840e+00 1.081916e+00 
208 208 1.115345e-01 2.723947e+00 3.294255e+00 
209 209 1.442720e-01 7.756046e+00 1.022123e+00 
210 210 2.050439e+00 2.781545e+00 1.371306e+00 
211 211 4.397936e+00 1.842398e+00 5.194696e+00 
212 212 5.750664e+00 4.499585e+00 7.199676e+00 
213 213 5.623433e+00 3.611529e+00 2.504928e+00 
214 214 1.138126e+00 4.886018e+00 4.298647e+00 
215 215 6.118239e+00 3.532195e+00 3.379618e+00 
216 216 7.853833e+00 5.945974e+00 3.309916e-01 
217 217 7.968528e-01 2.375649e+00 5.795153e+00 
218 218 4.728177e+00 2.265333e-01 5.284739e-01 
219 219 2.064149e+00 5.295272e+00 2.252274e+00 
220 220 1.879835e+00 5.779438e+00 4.300465e+00 
221 221 6.431993e-02 5.773046e+00 7.342309e+00 
222 222 1.965318e+00 6.671307e+00 4.919687e+00 
223 223 2.812513e+00 6.446648e+00 7.462141e+00 
224 224 6.117997e-01 5.009708e-01 5.721439e+00 
225 225 6.234875e+00 5.204211e+00 2.197456e+00 
226 226 3.607658e+00 2.905901e+00 5.941848e+00 
227 227 5.161910e+00 4.844669e+00 5.100155e-01 
228 228 3.276497e+00 9.817189e-01 7.590007e+00 
229 229 3.422663e+00 4.432161e+00 5.324800e+00 
230 230 2.715331e+00 1.229971e-02 5.871815e+00 
231 231 5.425822e+00 5.456016e+00 4.233762e+00 
232 232 6.367441e+00 1.042505e+00 2.663428e-02 
233 233 4.865275e+00 1.577282e+00 3.899408e+00 
234 234 6.516365e+00 6.882237e+00 2.663472e+00 
235 235 3.693582e+00 4.269254e+00 1.201434e+00 
236 236 2.637810e+00 1.874002e+00 3.505927e+00 
237 237 4.958914e+00 2.098362e+00 7.094652e+00 
238 238 2.262177e+00 8.705880e-01 1.315558e+00 
239 239 7.365492e+00 5.075053e-01 5.654427e+00 
240 240 1.790718e+00 5.113621e-01 5.378433e+00 
241 241 7.495335e+00 2.343860e+00 1.003174e+00 
242 242 4.451293e+00 5.558423e-01 4.970266e+00 
243 243 6.197344e+00 1.462905e+00 2.301705e+00 
244 244 3.242535e+00 5.080288e+00 1.603034e+00 
245 245 7.774047e+00 7.908782e+00 4.786403e+00 
246 246 3.723887e+00 6.731026e+00 2.367639e+00 
247 247 1.917820e+00 7.352614e+00 6.303645e+00 
248 248 5.525657e+00 7.674677e+00 2.588800e+00 
249 249 1.092216e+00 3.733164e+00 7.544349e+00 
250 250 6.393462e+00 7.584842e+00 5.678851e-01 
251 251 2.656488e+00 2.228995e+00 5.221371e-01 
252 252 2.457223e+00 7.527601e+00 4.729247e+00 
253 253 1.831304e+00 6.837325e+00 2.450449e+00 
254 254 7.959841e+00 1.381110e+00 5.939358e-01 
255 255 2.395067e+00 6.628527e+00 3.713278e+00 
ITEM: TIMESTEP 
0 
ITEM: NUMBER OF ATOMS 
256 
ITEM: BOX BOUNDS 
0.000000e+00 8.000000e+00 xlo xhi 
0.000000e+00 8.000000e+00 xlo xhi 
0.000000e+00 8.000000e+00 xlo xhi 
ITEM: ATOMS id type x y z 
0 0 2.540809e+00 3.607918e+00 2.128062e+00 
1 1 2.814417e+00 5.555649e-01 5.026574e+00 
2 2 1.913903e+00 1.889432e+00 6.194753e+00 
3 3 6.153191e+00 6.895293e+00 6.223672e+00 
4 4 1.757490e+00 4.961939e+00 1.137124e+00 
5 5 2.177086e+00 4.385239e+00 7.710848e+00 
6 6 7.513715e+00 3.698059e-01 2.342906e-02 
7 7 6.249566e+00 4.849365e+00 8.918644e-01 
8 8 6.541977e+00 6.828152e+00 5.021144e+00 
9 9 4.367807e+00 4.710656e+00 1.869804e+00 
10 10 6.543030e+00 1.979699e+00 6.181196e-01 
11 11 4.110225e+00 4.084243e-01 2.052496e+00 
12 12 2.652475e+00 3.135238e+00 3.359437e+00 
13 13 1.057511e+00 4.045200e+00 6.484178e+00 
14 14 6.769188e-01 6.580024e+00 2.098836e+00 
15 15 7.700269e+00 5.179026e+00 1.919825e+00 
16 16 7.646651e-01 5.551065e+00 3.512362e+00 
17 17 2.480830e+00 5.489011e-01 3.354394e+00 
18 18 7.516697e+00 1.426691e+00 1.569345e+00 
19 19 6.991098e+00 2.668625e+00 5.242916e+00 
20 20 5.259356e-01 9.787875e-01 3.315680e+00 
21 21 5.469081e+00 7.899069e-01 7.137350e+00 
22 22 1.355028e-02 4.861147e+00 1.482828e-01 
23 23 3.814058e-01 1.121789e+00 2.027013e+00 
24 24 6.820914e+00 3.820258e+00 7.931990e+00 
25 25 5.156931e+00 5.141915e+00 6.357504e+00 
26 26 4.706211e+00 6.810958e+00 2.522012e+00 
27 27 9.027656e-01 7.831765e+00 6.415176e+00 
28 28 7.976139e+00 4.136056e+00 2.771179e+00 
29 29 2.532120e+00 3.214225e+00 5.226495e+00 
30 30 5.418980e+00 4.240234e+00 1.420131e+00 
31 31 8.619694e-01 2.351128e+00 6.810467e+00 
32 32 6.508205e+00 7.654911e+00 7.562006e+00 
33 33 6.413964e+00 3.760821e-01 5.008248e+00 
34 34 1.668365e+00 7.248891e+00 7.589416e+00 
35 35 7.666303e-01 3.516926e+00 1.211915e+00 
36 36 5.330644e+00 1.918504e+00 1.750640e+00 
37 37 7.721960e-01 6.622077e+00 4.104031e+00 
38 38 7.194868e+00 6.484973e+00 7.450301e+00 
39 39 3.952451e+00 5.956021e+00 7.384249e+00 
40 40 6.296228e+00 2.753115e+00 4.337450e+00 
41 41 8.023889e-01 2.095822e+00 4.460781e+00 
42 42 7.447453e+00 5.762672e+00 5.074576e+00 
43 43 5.821120e+00 6.406132e+00 4.572168e-01 
44 44 9.829550e-01 6.788575e+00 6.599726e-01 
45 45 2.253958e+00 5.127550e+00 5.169344e+00 
46 46 4.967194e+00 2.978486e+00 1.497283e+00 
47 47 2.615015e+00 4.752173e+00 3.136947e+00 
48 48 1.574775e+00 2.342275e+00 2.298169e+00 
49 49 9.535157e-01 5.899598e+00 6.623697e+00 
50 50 1.220654e-01 7.305225e+00 3.779417e+00 
51 51 4.521006e+00 6.768820e+00 3.595269e+00 
52 52 3.886743e+00 5.382185e-01 3.672141e+00 
53 53 1.906629e+00 7.702677e+00 3.645835e+00 
54 54 4.380545e+00 2.205439e+00 3.005957e+00 
55 55 5.918107e+00 3.461958e+00 6.222983e+00 
56 56 5.860335e+00 3.431142e-01 1.885505e+00 
57 57 6.950929e+00 5.551171e+00 3.187155e+00 
58 58 7.377413e+00 2.219943e+00 1.363824e-02 
59 59 2.628036e+00 6.796570e+00 6.013352e-01 
60 60 6.976358e+00 4.344810e+00 5.377734e+00 
61 61 3.781926e+00 3.091158e+00 4.964835e+00 
62 62 6.346168e+00 2.942414e+00 1.504882e-01 
63 63 5.717848e+00 5.487487e+00 7.323003e+00 
64 64 5.742822e+00 3.836206e-01 7.292413e-01 
65 65 3.129581e+00 3.088332e+00 1.311897e+00 
66 66 7.112972e+00 4.008621e+00 3.494042e+00 
67 67 2.840148e+00 2.402517e+00 6.607996e+00 
68 68 3.016890e+00 7.449028e+00 6.758750e+00 
69 69 5.786688e+00 6.002476e+00 3.442597e+00 
70 70 5.998422e+00 4.601373e+00 4.684653e+00 
71 71 4.131814e+00 1.518588e+00 6.932106e+00 
72 72 3.268683e+00 5.565519e+00 2.443690e-01 
73 73 3.961775e+00 9.012763e-02 7.569215e+00 
74 74 1.485849e+00 7.559656e+00 5.038138e+00 
75 75 7.129148e+00 3.232785e+00 1.278720e+00 
76 76 3.716514e+00 6.483179e+00 5.813125e+00 
77 77 1.303008e+00 2.159992e+00 6.526409e-01 
78 78 7.572543e+00 6.729365e+00 1.073430e+00 
79 79 4.576892e+00 3.561495e+00 4.490273e+00 
80 80 4.950712e+00 7.822329e+00 1.707420e+00 
81 81 3.491504e+00 6.954371e+00 4.042927e+00 
82 82 3.436832e+00 4.481610e+00 7.372008e+00 
83 83 7.551944e+00 7.860421e+00 6.723782e+00 
84 84 5.180133e+00 4.685894e-02 3.824720e+00 
85 85 7.104651e+00 1.101500e+00 4.632819e+00 
86 86 4.971042e+00 4.164874e+00 7.768487e+00 
87 87 3.613359e+00 4.173709e+00 3.691039e+00 
88 88 3.020754e+00 7.500474e+00 2.291535e+00 
89 89 7.255492e+00 3.640188e-01 1.451013e+00 
90 90 4.450584e+00 4.527882e+00 5.256756e+00 
91 91 4.391484e+00 3.639981e+00 6.415211e+00 
92 92 3.085919e+00 5.960812e+00 2.280821e+00 
93 93 2.567621e+00 4.855277e+00 6.747469e+00 
94 94 6.791167e+00 4.935842e+00 7.208860e+00 
95 95 1.219655e+00 1.389268e+00 5.055129e+00 
96 96 3.854377e+00 1.682778e+00 8.027342e-02 
97 97 7.969726e+00 3.548319e+00 3.419364e-01 
98 98 5.181712e+00 1.631393e+00 4.010226e-01 
99 99 2.536510e+00 9.468854e-01 3.083459e-01 
100 100 3.690792e+00 5.438411e+00 4.943652e+00 
101 101 3.982548e+00 2.081379e+00 4.045265e+00 
102 102 1.662482e+00 1.854820e+00 7.232019e+00 
103 103 4.359158e+00 7.203940e+00 6.126123e+00 
104 104 5.311474e+00 2.005029e+00 5.703052e+00 
105 105 2.615077e+00 5.823042e+00 6.016676e+00 
106 106 5.855594e+00 2.084684e+00 3.048481e+00 
107 107 5.001101e+00 6.731634e+00 7.145466e+00 
108 108 1.497392e+00 2.387181e+00 3.527326e+00 
109 109 3.386585e+00 2.142633e+00 5.173847e+00 
110 110 2.176019e+00 1.375880e+00 2.381433e+00 
111 111 7.978522e+00 2.990715e+00 5.917910e+00 
112 112 5.551743e-01 4.346800e+00 1.782065e+00 
113 113 7.099101e+00 7.228415e+00 3.918233e+00 