ITEM: TIMESTEP 
0 
ITEM: NUMBER OF ATOMS 
4 
ITEM: BOX BOUNDS 
0.000000e+00 2.000000e+00 xlo xhi 
0.000000e+00 2.000000e+00 xlo xhi 
0.000000e+00 2.000000e+00 xlo xhi 
ITEM: ATOMS id type x y z 
0 0 6.327931e-01 9.041049e-01 5.325870e-01 
1 1 7.049285e-01 1.356757e-01 1.253230e+00 
2 2 1.383471e+00 1.290441e+00 1.452359e+00 
3 3 1.636178e+00 4.918597e-01 1.521887e-01 
ITEM: TIMESTEP 
0 
ITEM: NUMBER OF ATOMS 
4 
ITEM: BOX BOUNDS 
0.000000e+00 2.000000e+00 xlo xhi 
0.000000e+00 2.000000e+00 xlo xhi 
0.000000e+00 2.000000e+00 xlo xhi 
ITEM: ATOMS id type x y z 
0 0 6.343575e-01 9.021086e-01 5.312582e-01 
1 1 7.047619e-01 1.363125e-01 1.253788e+00 
2 2 1.382176e+00 1.291238e+00 1.453050e+00 
3 3 1.636025e+00 4.922712e-01 1.521022e-01 
ITEM: TIMESTEP 
0 
ITEM: NUMBER OF ATOMS 
4 
ITEM: BOX BOUNDS 
0.000000e+00 2.000000e+00 xlo xhi 
0.000000e+00 2.000000e+00 xlo xhi 
0.000000e+00 2.000000e+00 xlo xhi 
ITEM: ATOMS id type x y z 
0 0 6.509508e-01 8.806596e-01 5.177980e-01 
1 1 7.044687e-01 1.421127e-01 1.259417e+00 
2 2 1.369030e+00 1.298951e+00 1.460932e+00 
3 3 1.633028e+00 4.968948e-01 1.519854e-01 
ITEM: TIMESTEP 
0 
ITEM: NUMBER OF ATOMS 
4 
ITEM: BOX BOUNDS 
0.000000e+00 2.000000e+00 xlo xhi 
0.000000e+00 2.000000e+00 xlo xhi 
0.000000e+00 2.000000e+00 xlo xhi 
ITEM: ATOMS id type x y z 
0 0 6.712720e-01 8.600790e-01 5.069008e-01 
1 1 7.057319e-01 1.491190e-01 1.263771e+00 
2 2 1.355819e+00 1.306994e+00 1.468825e+00 
3 3 1.625209e+00 5.028852e-01 1.509007e-01 
ITEM: TIMESTEP 
0 
ITEM: NUMBER OF ATOMS 
4 
ITEM: BOX BOUNDS 
0.000000e+00 2.000000e+00 xlo xhi 
0.000000e+00 2.000000e+00 xlo xhi 
0.000000e+00 2.000000e+00 xlo xhi 
ITEM: ATOMS id type x y z 
0 0 6.941768e-01 8.412538e-01 4.992208e-01 
1 1 7.103491e-01 1.549687e-01 1.265709e+00 
2 2 1.340915e+00 1.315023e+00 1.475825e+00 
3 3 1.613576e+00 5.117111e-01 1.480264e-01 
ITEM: TIMESTEP 
0 
ITEM: NUMBER OF ATOMS 
4 
ITEM: BOX BOUNDS 
0.000000e+00 2.000000e+00 xlo xhi 
0.000000e+00 2.000000e+00 xlo xhi 
0.000000e+00 2.000000e+00 xlo xhi 
ITEM: ATOMS id type x y z 
0 0 7.184157e-01 8.226882e-01 4.932056e-01 
1 1 7.169988e-01 1.611936e-01 1.265831e+00 
2 2 1.324535e+00 1.324164e+00 1.481888e+00 
3 3 1.600111e+00 5.221672e-01 1.435428e-01 
ITEM: TIMESTEP 
0 
ITEM: NUMBER OF ATOMS 
4 
ITEM: BOX BOUNDS 
0.000000e+00 2.000000e+00 xlo xhi 
0.000000e+00 2.000000e+00 xlo xhi 
0.000000e+00 2.000000e+00 xlo xhi 
ITEM: ATOMS id type x y z 
0 0 7.462078e-01 8.047574e-01 4.896554e-01 
1 1 7.270164e-01 1.657222e-01 1.265870e+00 
2 2 1.306357e+00 1.332134e+00 1.487438e+00 
3 3 1.584900e+00 5.309413e-01 1.361742e-01 
ITEM: TIMESTEP 
0 
ITEM: NUMBER OF ATOMS 
4 
ITEM: BOX BOUNDS 
0.000000e+00 2.000000e+00 xlo xhi 
0.000000e+00 2.000000e+00 xlo xhi 
0.000000e+00 2.000000e+00 xlo xhi 
ITEM: ATOMS id type x y z 
0 0 7.743030e-01 7.887342e-01 4.882207e-01 
1 1 7.377787e-01 1.693584e-01 1.268983e+00 
2 2 1.285967e+00 1.338543e+00 1.491929e+00 
3 3 1.569471e+00 5.385117e-01 1.274995e-01 
ITEM: TIMESTEP 
0 
ITEM: NUMBER OF ATOMS 
4 
ITEM: BOX BOUNDS 
0.000000e+00 2.000000e+00 xlo xhi 
0.000000e+00 2.000000e+00 xlo xhi 
0.000000e+00 2.000000e+00 xlo xhi 
ITEM: ATOMS id type x y z 
0 0 8.032051e-01 7.753066e-01 4.843361e-01 
1 1 7.495427e-01 1.737828e-01 1.273146e+00 
2 2 1.265375e+00 1.342983e+00 1.498369e+00 
3 3 1.553559e+00 5.467375e-01 1.167832e-01 
ITEM: TIMESTEP 
0 
ITEM: NUMBER OF ATOMS 
4 
ITEM: BOX BOUNDS 
0.000000e+00 2.000000e+00 xlo xhi 
0.000000e+00 2.000000e+00 xlo xhi 
0.000000e+00 2.000000e+00 xlo xhi 
ITEM: ATOMS id type x y z 
0 0 8.325846e-01 7.649530e-01 4.781937e-01 
1 1 7.604708e-01 1.799190e-01 1.280110e+00 
2 2 1.244339e+00 1.344259e+00 1.506933e+00 
3 3 1.536586e+00 5.561674e-01 1.051533e-01 
ITEM: TIMESTEP 
0 
ITEM: NUMBER OF ATOMS 
4 
ITEM: BOX BOUNDS 
0.000000e+00 2.000000e+00 xlo xhi 
0.000000e+00 2.000000e+00 xlo xhi 
0.000000e+00 2.000000e+00 xlo xhi 
ITEM: ATOMS id type x y z 
0 0 8.618770e-01 7.592218e-01 4.703187e-01 
1 1 7.707301e-01 1.853003e-01 1.288670e+00 
2 2 1.224291e+00 1.344188e+00 1.517098e+00 
3 3 1.517839e+00 5.669258e-01 9.245144e-02 
ITEM: TIMESTEP 
0 
ITEM: NUMBER OF ATOMS 
4 
ITEM: BOX BOUNDS 
0.000000e+00 2.000000e+00 xlo xhi 
0.000000e+00 2.000000e+00 xlo xhi 
0.000000e+00 2.000000e+00 xlo xhi 
ITEM: ATOMS id type x y z 
0 0 8.892454e-01 7.551660e-01 4.592118e-01 
1 1 7.822296e-01 1.910126e-01 1.298350e+00 
2 2 1.203810e+00 1.343053e+00 1.530407e+00 
3 3 1.497683e+00 5.789034e-01 7.808864e-02 
ITEM: TIMESTEP 
0 
ITEM: NUMBER OF ATOMS 
4 
ITEM: BOX BOUNDS 
0.000000e+00 2.000000e+00 xlo xhi 
0.000000e+00 2.000000e+00 xlo xhi 
0.000000e+00 2.000000e+00 xlo xhi 
ITEM: ATOMS id type x y z 
0 0 9.155129e-01 7.515047e-01 4.483495e-01 
1 1 7.951300e-01 1.985338e-01 1.309387e+00 
2 2 1.183552e+00 1.342260e+00 1.543944e+00 
3 3 1.475699e+00 5.909870e-01 6.022705e-02 
ITEM: TIMESTEP 
0 
ITEM: NUMBER OF ATOMS 
4 
ITEM: BOX BOUNDS 
0.000000e+00 2.000000e+00 xlo xhi 
0.000000e+00 2.000000e+00 xlo xhi 
0.000000e+00 2.000000e+00 xlo xhi 
ITEM: ATOMS id type x y z 
0 0 9.428512e-01 7.481594e-01 4.370037e-01 
1 1 8.101420e-01 2.084070e-01 1.319977e+00 
2 2 1.163108e+00 1.339002e+00 1.558962e+00 
3 3 1.451945e+00 6.045839e-01 3.865938e-02 
ITEM: TIMESTEP 
0 
ITEM: NUMBER OF ATOMS 
4 
ITEM: BOX BOUNDS 
0.000000e+00 2.000000e+00 xlo xhi 
0.000000e+00 2.000000e+00 xlo xhi 
0.000000e+00 2.000000e+00 xlo xhi 
ITEM: ATOMS id type x y z 
0 0 9.719454e-01 7.430661e-01 4.257302e-01 
1 1 8.260116e-01 2.205950e-01 1.329025e+00 
2 2 1.143689e+00 1.335176e+00 1.575984e+00 
3 3 1.428447e+00 6.180864e-01 1.688031e-02 
ITEM: TIMESTEP 
0 
ITEM: NUMBER OF ATOMS 
4 
ITEM: BOX BOUNDS 
0.000000e+00 2.000000e+00 xlo xhi 
0.000000e+00 2.000000e+00 xlo xhi 
0.000000e+00 2.000000e+00 xlo xhi 
ITEM: ATOMS id type x y z 
0 0 1.003601e+00 7.373132e-01 4.129470e-01 
1 1 8.420077e-01 2.331643e-01 1.334269e+00 
2 2 1.123747e+00 1.331489e+00 1.595414e+00 
3 3 1.404556e+00 6.310392e-01 1.999345e+00 
ITEM: TIMESTEP 
0 
ITEM: NUMBER OF ATOMS 
4 
ITEM: BOX BOUNDS 
0.000000e+00 2.000000e+00 xlo xhi 
0.000000e+00 2.000000e+00 xlo xhi 
0.000000e+00 2.000000e+00 xlo xhi 
ITEM: ATOMS id type x y z 
0 0 1.045233e+00 7.278607e-01 3.908195e-01 
1 1 8.579098e-01 2.447877e-01 1.336530e+00 
2 2 1.101811e+00 1.328035e+00 1.615994e+00 
3 3 1.368470e+00 6.468745e-01 1.993212e+00 
ITEM: TIMESTEP 
0 
ITEM: NUMBER OF ATOMS 
4 
ITEM: BOX BOUNDS 
0.000000e+00 2.000000e+00 xlo xhi 
0.000000e+00 2.000000e+00 xlo xhi 
0.000000e+00 2.000000e+00 xlo xhi 
ITEM: ATOMS id type x y z 
0 0 1.656250e+00 3.417969e-02 7.500000e-01 
1 1 8.750783e-01 2.629081e-01 1.327839e+00 
2 2 1.081794e+00 1.325349e+00 1.636235e+00 
3 3 7.812500e-01 1.341797e+00 1.625000e+00 
ITEM: TIMESTEP 
0 
ITEM: NUMBER OF ATOMS 
4 
ITEM: BOX BOUNDS 
0.000000e+00 2.000000e+00 xlo xhi 
0.000000e+00 2.000000e+00 xlo xhi 
0.000000e+00 2.000000e+00 xlo xhi 
ITEM: ATOMS id type x y z 
0 0 1.593750e+00 7.568359e-01 7.500000e-01 
1 1 9.209731e-01 2.780338e-01 1.270659e+00 
2 2 7.528894e-01 1.405523e+00 1.248426e+00 
3 3 1.375000e+00 5.576172e-01 8.750000e-01 
ITEM: TIMESTEP 
0 
ITEM: NUMBER OF ATOMS 
4 
ITEM: BOX BOUNDS 
0.000000e+00 2.000000e+00 xlo xhi 
0.000000e+00 2.000000e+00 xlo xhi 
0.000000e+00 2.000000e+00 xlo xhi 
ITEM: ATOMS id type x y z 
0 0 5.000000e-01 9.013672e-01 0.000000e+00 
1 1 7.793740e-01 2.793088e-01 1.431148e+00 
2 2 7.033481e-01 5.550367e-01 8.543556e-01 
3 3 6.875000e-01 1.288086e+00 8.750000e-01 
ITEM: TIMESTEP 
0 
ITEM: NUMBER OF ATOMS 
4 
ITEM: BOX BOUNDS 
0.000000e+00 2.000000e+00 xlo xhi 
0.000000e+00 2.000000e+00 xlo xhi 
0.000000e+00 2.000000e+00 xlo xhi 
ITEM: ATOMS id type x y z 
0 0 1.250000e+00 1.956055e+00 8.750000e-01 
1 1 1.913967e+00 2.592448e-01 4.099947e-01 
2 2 7.227909e-01 1.742252e+00 4.466965e-01 
3 3 5.312500e-01 1.072266e+00 1.250000e+00 
ITEM: TIMESTEP 
0 
ITEM: NUMBER OF ATOMS 
4 
ITEM: BOX BOUNDS 
0.000000e+00 2.000000e+00 xlo xhi 
0.000000e+00 2.000000e+00 xlo xhi 
0.000000e+00 2.000000e+00 xlo xhi 
ITEM: ATOMS id type x y z 
0 0 4.687500e-01 1.102539e+00 3.750000e-01 
1 1 1.063764e+00 2.198923e-01 1.382348e+00 
2 2 8.097595e-01 9.840010e-01 1.342849e-02 
3 3 1.781250e+00 7.333984e-01 1.000000e+00 
ITEM: TIMESTEP 
0 
ITEM: NUMBER OF ATOMS 
4 
ITEM: BOX BOUNDS 
0.000000e+00 2.000000e+00 xlo xhi 
0.000000e+00 2.000000e+00 xlo xhi 
0.000000e+00 2.000000e+00 xlo xhi 
ITEM: ATOMS id type x y z 
0 0 1.000000e+00 1.045898e+00 1.250000e-01 
1 1 1.778510e+00 9.789798e-01 1.893758e-01 
2 2 9.423948e-01 2.267798e-01 1.739358e+00 
3 3 3.125000e-02 7.998047e-01 6.250000e-01 
ITEM: TIMESTEP 
0 
ITEM: NUMBER OF ATOMS 
4 
ITEM: BOX BOUNDS 
0.000000e+00 2.000000e+00 xlo xhi 
0.000000e+00 2.000000e+00 xlo xhi 
0.000000e+00 2.000000e+00 xlo xhi 
ITEM: ATOMS id type x y z 
0 0 9.375000e-02 1.609375e+00 8.750000e-01 
1 1 1.585086e+00 1.419429e+00 8.665194e-01 
2 2 9.506951e-01 1.436248e+00 1.763078e+00 
3 3 5.625000e-01 6.240234e-01 1.125000e+00 
ITEM: TIMESTEP 
0 
ITEM: NUMBER OF ATOMS 
4 
ITEM: BOX BOUNDS 
0.000000e+00 2.000000e+00 xlo xhi 
0.000000e+00 2.000000e+00 xlo xhi 
0.000000e+00 2.000000e+00 xlo xhi 
ITEM: ATOMS id type x y z 
0 0 1.218750e+00 1.783203e+00 1.250000e-01 
1 1 1.605835e+00 1.608308e+00 1.872106e+00 
2 2 1.138787e+00 6.510537e-01 1.794775e+00 
3 3 8.750000e-01 1.107422e+00 1.125000e+00 
ITEM: TIMESTEP 
0 
ITEM: NUMBER OF ATOMS 
4 
ITEM: BOX BOUNDS 
0.000000e+00 2.000000e+00 xlo xhi 
0.000000e+00 2.000000e+00 xlo xhi 
0.000000e+00 2.000000e+00 xlo xhi 
ITEM: ATOMS id type x y z 
0 0 6.875000e-01 1.343750e+00 1.250000e+00 
1 1 1.670155e+00 1.715402e+00 7.994905e-01 
2 2 1.490959e+00 1.854519e+00 1.833017e+00 
3 3 8.437500e-01 3.134766e-01 1.375000e+00 
ITEM: TIMESTEP 
0 
ITEM: NUMBER OF ATOMS 
4 
ITEM: BOX BOUNDS 
0.000000e+00 2.000000e+00 xlo xhi 
0.000000e+00 2.000000e+00 xlo xhi 
0.000000e+00 2.000000e+00 xlo xhi 
ITEM: ATOMS id type x y z 
0 0 1.812500e+00 7.685547e-01 6.250000e-01 
1 1 1.261420e+00 1.990346e-02 9.688240e-02 
2 2 4.007217e-01 1.679114e+00 1.278069e+00 
3 3 6.875000e-01 8.369141e-01 1.125000e+00 
ITEM: TIMESTEP 
0 
ITEM: NUMBER OF ATOMS 
4 
ITEM: BOX BOUNDS 
0.000000e+00 2.000000e+00 xlo xhi 
0.000000e+00 2.000000e+00 xlo xhi 
0.000000e+00 2.000000e+00 xlo xhi 
ITEM: ATOMS id type x y z 
0 0 1.906250e+00 1.359375e+00 1.250000e+00 
1 1 1.237433e+00 1.190510e+00 4.923372e-01 
2 2 1.519246e+00 1.657091e+00 5.688495e-01 
3 3 1.031250e+00 1.168945e+00 1.875000e+00 
ITEM: TIMESTEP 
0 
ITEM: NUMBER OF ATOMS 
4 
ITEM: BOX BOUNDS 
0.000000e+00 2.000000e+00 xlo xhi 
0.000000e+00 2.000000e+00 xlo xhi 
0.000000e+00 2.000000e+00 xlo xhi 
ITEM: ATOMS id type x y z 
0 0 5.625000e-01 4.687500e-01 1.875000e+00 
1 1 1.377634e+00 1.938543e-01 1.535401e+00 
2 2 1.861452e+00 1.619739e-02 4.384637e-02 
3 3 1.843750e+00 7.402344e-01 1.625000e+00 
ITEM: TIMESTEP 
0 
ITEM: NUMBER OF ATOMS 
4 
ITEM: BOX BOUNDS 
0.000000e+00 2.000000e+00 xlo xhi 
0.000000e+00 2.000000e+00 xlo xhi 
0.000000e+00 2.000000e+00 xlo xhi 
ITEM: ATOMS id type x y z 
0 0 1.031250e+00 3.017578e-01 1.250000e+00 
1 1 8.030074e-02 1.553111e-01 5.752850e-02 
2 2 3.807429e-01 5.607489e-01 1.819111e+00 
3 3 6.875000e-01 4.228516e-01 1.000000e+00 
ITEM: TIMESTEP 
0 
ITEM: NUMBER OF ATOMS 
4 
ITEM: BOX BOUNDS 
0.000000e+00 2.000000e+00 xlo xhi 
0.000000e+00 2.000000e+00 xlo xhi 
0.000000e+00 2.000000e+00 xlo xhi 
ITEM: ATOMS id type x y z 
0 0 7.187500e-01 2.851562e-01 1.250000e+00 
1 1 1.724350e+00 1.889555e+00 1.672174e+00 
2 2 7.001049e-03 1.565631e+00 1.906426e+00 
3 3 8.750000e-01 1.704102e+00 2.500000e-01 
ITEM: TIMESTEP 
0 
ITEM: NUMBER OF ATOMS 
4 
ITEM: BOX BOUNDS 
0.000000e+00 2.000000e+00 xlo xhi 
0.000000e+00 2.000000e+00 xlo xhi 
0.000000e+00 2.000000e+00 xlo xhi 
ITEM: ATOMS id type x y z 
0 0 9.687500e-01 1.754883e+00 1.500000e+00 
1 1 3.232303e-01 1.148506e+00 8.947276e-01 
2 2 5.277001e-01 8.786010e-01 3.012985e-01 
3 3 1.187500e+00 1.654297e+00 1.375000e+00 
ITEM: TIMESTEP 
0 
ITEM: NUMBER OF ATOMS 
4 
ITEM: BOX BOUNDS 
0.000000e+00 2.000000e+00 xlo xhi 
0.000000e+00 2.000000e+00 xlo xhi 
0.000000e+00 2.000000e+00 xlo xhi 
ITEM: ATOMS id type x y z 
0 0 2.812500e-01 1.166016e+00 5.000000e-01 
1 1 9.948450e-01 4.046019e-01 1.409188e+00 
2 2 1.641112e+00 1.635656e-01 1.870647e+00 
3 3 1.812500e+00 1.660156e+00 1.375000e+00 
ITEM: TIMESTEP 
0 
ITEM: NUMBER OF ATOMS 
4 
ITEM: BOX BOUNDS 
0.000000e+00 2.000000e+00 xlo xhi 
0.000000e+00 2.000000e+00 xlo xhi 
0.000000e+00 2.000000e+00 xlo xhi 
ITEM: ATOMS id type x y z 
0 0 6.250000e-01 1.049805e+00 5.000000e-01 
1 1 1.456885e+00 2.695084e-01 5.108103e-01 
2 2 3.754767e-01 9.814529e-01 2.186979e-01 
3 3 1.750000e+00 1.043945e+00 7.500000e-01 
ITEM: TIMESTEP 
0 
ITEM: NUMBER OF ATOMS 
4 
ITEM: BOX BOUNDS 
0.000000e+00 2.000000e+00 xlo xhi 
0.000000e+00 2.000000e+00 xlo xhi 
0.000000e+00 2.000000e+00 xlo xhi 
ITEM: ATOMS id type x y z 
0 0 6.875000e-01 1.194336e+00 1.250000e-01 
1 1 8.662548e-01 1.760234e+00 6.666358e-01 
2 2 7.068384e-01 6.555714e-01 1.833499e+00 
3 3 1.750000e+00 1.693359e+00 2.500000e-01 
ITEM: TIMESTEP 
0 
ITEM: NUMBER OF ATOMS 
4 
ITEM: BOX BOUNDS 
0.000000e+00 2.000000e+00 xlo xhi 
0.000000e+00 2.000000e+00 xlo xhi 
0.000000e+00 2.000000e+00 xlo xhi 
ITEM: ATOMS id type x y z 
0 0 1.875000e-01 1.620117e+00 8.750000e-01 
1 1 6.437778e-01 5.131264e-01 6.743759e-01 
2 2 9.152063e-01 1.781031e+00 1.772060e+00 
3 3 6.562500e-01 1.357422e+00 6.250000e-01 
ITEM: TIMESTEP 
0 
ITEM: NUMBER OF ATOMS 
4 
ITEM: BOX BOUNDS 
0.000000e+00 2.000000e+00 xlo xhi 
0.000000e+00 2.000000e+00 xlo xhi 
0.000000e+00 2.000000e+00 xlo xhi 
ITEM: ATOMS id type x y z 
0 0 0.000000e+00 7.822266e-01 1.250000e+00 
1 1 5.860295e-01 5.511369e-01 1.569944e+00 
2 2 1.221646e+00 8.343049e-01 7.457391e-01 
3 3 8.750000e-01 1.083008e+00 6.250000e-01 
ITEM: TIMESTEP 
0 
ITEM: NUMBER OF ATOMS 
4 
ITEM: BOX BOUNDS 
0.000000e+00 2.000000e+00 xlo xhi 
0.000000e+00 2.000000e+00 xlo xhi 
0.000000e+00 2.000000e+00 xlo xhi 
ITEM: ATOMS id type x y z 
0 0 9.375000e-02 2.734375e-01 3.750000e-01 
1 1 2.523205e-01 8.881709e-01 5.254460e-01 
2 2 3.916965e-01 1.190356e+00 5.234736e-01 
3 3 1.843750e+00 9.179688e-01 8.750000e-01 
ITEM: TIMESTEP 
0 
ITEM: NUMBER OF ATOMS 
4 
ITEM: BOX BOUNDS 
0.000000e+00 2.000000e+00 xlo xhi 
0.000000e+00 2.000000e+00 xlo xhi 
0.000000e+00 2.000000e+00 xlo xhi 
ITEM: ATOMS id type x y z 
0 0 7.812500e-01 4.248047e-01 7.500000e-01 
1 1 1.583923e+00 1.930543e+00 4.459799e-01 
2 2 1.428405e+00 1.748055e+00 2.362485e-01 
3 3 1.375000e+00 1.190430e+00 7.500000e-01 
ITEM: TIMESTEP 
0 
ITEM: NUMBER OF ATOMS 
4 
ITEM: BOX BOUNDS 
0.000000e+00 2.000000e+00 xlo xhi 
0.000000e+00 2.000000e+00 xlo xhi 
0.000000e+00 2.000000e+00 xlo xhi 
ITEM: ATOMS id type x y z 
0 0 2.812500e-01 7.783203e-01 8.750000e-01 
1 1 1.957883e+00 1.769440e-01 1.277340e+00 
2 2 1.072094e+00 1.374296e+00 8.772327e-01 
3 3 1.718750e+00 1.001953e+00 1.750000e+00 
ITEM: TIMESTEP 
0 
ITEM: NUMBER OF ATOMS 
4 
ITEM: BOX BOUNDS 
0.000000e+00 2.000000e+00 xlo xhi 
0.000000e+00 2.000000e+00 xlo xhi 
0.000000e+00 2.000000e+00 xlo xhi 
ITEM: ATOMS id type x y z 
0 0 9.375000e-02 5.190430e-01 1.250000e+00 
1 1 2.605388e-01 1.827289e-02 1.455625e+00 
2 2 3.802916e-01 4.618188e-01 1.448301e+00 
3 3 4.687500e-01 3.515625e-01 1.375000e+00 
ITEM: TIMESTEP 
0 
ITEM: NUMBER OF ATOMS 
4 
ITEM: BOX BOUNDS 
0.000000e+00 2.000000e+00 xlo xhi 
0.000000e+00 2.000000e+00 xlo xhi 
0.000000e+00 2.000000e+00 xlo xhi 
ITEM: ATOMS id type x y z 
0 0 1.468750e+00 2.294922e-02 8.750000e-01 
1 1 9.023325e-01 1.438041e-01 1.574394e+00 
2 2 1.019566e+00 1.636706e+00 5.329294e-01 
3 3 3.750000e-01 1.548340e+00 1.000000e+00 
ITEM: TIMESTEP 
0 
ITEM: NUMBER OF ATOMS 
4 
ITEM: BOX BOUNDS 
0.000000e+00 2.000000e+00 xlo xhi 
0.000000e+00 2.000000e+00 xlo xhi 
0.000000e+00 2.000000e+00 xlo xhi 
ITEM: ATOMS id type x y z 
0 0 5.000000e-01 6.479492e-01 8.750000e-01 
1 1 1.593490e+00 9.838469e-01 2.532892e-01 
2 2 1.733177e+00 8.514552e-01 1.253231e+00 
3 3 6.562500e-01 8.691406e-01 1.625000e+00 
ITEM: TIMESTEP 
0 
ITEM: NUMBER OF ATOMS 
4 
ITEM: BOX BOUNDS 
0.000000e+00 2.000000e+00 xlo xhi 
0.000000e+00 2.000000e+00 xlo xhi 
0.000000e+00 2.000000e+00 xlo xhi 
ITEM: ATOMS id type x y z 
0 0 1.312500e+00 1.903320e+00 1.750000e+00 
1 1 1.030355e+00 1.878109e+00 4.435984e-01 
2 2 9.941241e-01 7.779383e-01 8.521440e-01 
3 3 1.656250e+00 7.885742e-01 5.000000e-01 
ITEM: TIMESTEP 
0 
ITEM: NUMBER OF ATOMS 
4 
ITEM: BOX BOUNDS 
0.000000e+00 2.000000e+00 xlo xhi 
0.000000e+00 2.000000e+00 xlo xhi 
0.000000e+00 2.000000e+00 xlo xhi 
ITEM: ATOMS id type x y z 
0 0 3.750000e-01 7.729492e-01 6.250000e-01 
1 1 9.115805e-01 4.701129e-01 1.567105e+00 
2 2 6.153560e-01 1.318444e+00 5.251434e-01 
3 3 1.656250e+00 7.866211e-01 1.625000e+00 
ITEM: TIMESTEP 
0 
ITEM: NUMBER OF ATOMS 
4 
ITEM: BOX BOUNDS 
0.000000e+00 2.000000e+00 xlo xhi 
0.000000e+00 2.000000e+00 xlo xhi 
0.000000e+00 2.000000e+00 xlo xhi 
ITEM: ATOMS id type x y z 
0 0 6.875000e-01 1.831543e+00 3.750000e-01 
1 1 1.166517e+00 1.781366e+00 9.658503e-02 
2 2 1.445832e+00 9.981228e-01 1.440673e+00 
3 3 6.562500e-01 7.480469e-01 6.250000e-01 
ITEM: TIMESTEP 
0 
ITEM: NUMBER OF ATOMS 
4 
ITEM: BOX BOUNDS 
0.000000e+00 2.000000e+00 xlo xhi 
0.000000e+00 2.000000e+00 xlo xhi 
0.000000e+00 2.000000e+00 xlo xhi 
ITEM: ATOMS id type x y z 
0 0 1.500000e+00 1.275391e+00 5.000000e-01 
1 1 1.476969e+00 1.335753e+00 3.607420e-01 
2 2 1.564036e+00 9.335527e-01 1.679266e+00 
3 3 1.781250e+00 1.830566e+00 1.125000e+00 
ITEM: TIMESTEP 
0 
ITEM: NUMBER OF ATOMS 
4 
ITEM: BOX BOUNDS 
0.000000e+00 2.000000e+00 xlo xhi 
0.000000e+00 2.000000e+00 xlo xhi 
0.000000e+00 2.000000e+00 xlo xhi 
ITEM: ATOMS id type x y z 
0 0 1.031250e+00 1.616211e-01 6.250000e-01 
1 1 1.549423e-02 4.661017e-01 1.217249e+00 
2 2 8.686830e-01 7.854728e-01 3.138739e-01 
3 3 6.875000e-01 1.983887e+00 1.625000e+00 
ITEM: TIMESTEP 
0 
ITEM: NUMBER OF ATOMS 
4 
ITEM: BOX BOUNDS 
0.000000e+00 2.000000e+00 xlo xhi 
0.000000e+00 2.000000e+00 xlo xhi 
0.000000e+00 2.000000e+00 xlo xhi 
ITEM: ATOMS id type x y z 
0 0 6.250000e-01 3.129883e-01 1.625000e+00 
1 1 1.391014e-01 2.163129e-01 6.120436e-01 
2 2 6.023157e-01 1.226030e-01 1.055641e-01 
3 3 1.562500e+00 7.612305e-01 6.250000e-01 
ITEM: TIMESTEP 
0 
ITEM: NUMBER OF ATOMS 
4 
ITEM: BOX BOUNDS 
0.000000e+00 2.000000e+00 xlo xhi 
0.000000e+00 2.000000e+00 xlo xhi 
0.000000e+00 2.000000e+00 xlo xhi 
ITEM: ATOMS id type x y z 
0 0 1.343750e+00 1.644043e+00 1.875000e+00 
1 1 9.017681e-01 1.421062e+00 5.239699e-01 
2 2 1.970093e+00 1.408226e-01 1.599724e+00 
3 3 7.187500e-01 2.216797e-01 3.750000e-01 
ITEM: TIMESTEP 
0 
ITEM: NUMBER OF ATOMS 
4 
ITEM: BOX BOUNDS 
0.000000e+00 2.000000e+00 xlo xhi 
0.000000e+00 2.000000e+00 xlo xhi 
0.000000e+00 2.000000e+00 xlo xhi 
ITEM: ATOMS id type x y z 
0 0 3.125000e-01 2.055664e-01 1.750000e+00 
1 1 1.647569e+00 1.404366e+00 9.312766e-01 
2 2 1.274120e+00 1.752332e+00 9.953814e-01 
3 3 1.656250e+00 7.519531e-02 1.625000e+00 
ITEM: TIMESTEP 
0 
ITEM: NUMBER OF ATOMS 
4 
ITEM: BOX BOUNDS 
0.000000e+00 2.000000e+00 xlo xhi 
0.000000e+00 2.000000e+00 xlo xhi 
0.000000e+00 2.000000e+00 xlo xhi 
ITEM: ATOMS id type x y z 
0 0 1.562500e+00 8.759766e-01 1.000000e+00 
1 1 1.773435e+00 7.787593e-01 1.167655e+00 
2 2 1.245530e+00 3.731012e-01 1.342132e+00 
3 3 2.500000e-01 1.412598e+00 1.875000e+00 
ITEM: TIMESTEP 
0 
ITEM: NUMBER OF ATOMS 
4 
ITEM: BOX BOUNDS 
0.000000e+00 2.000000e+00 xlo xhi 
0.000000e+00 2.000000e+00 xlo xhi 
0.000000e+00 2.000000e+00 xlo xhi 
ITEM: ATOMS id type x y z 
0 0 1.250000e-01 1.526855e+00 1.750000e+00 
1 1 8.529315e-01 1.185994e+00 1.780858e+00 
2 2 1.640870e+00 1.353135e+00 4.687070e-01 
3 3 2.500000e-01 1.372559e+00 7.500000e-01 
ITEM: TIMESTEP 
0 
ITEM: NUMBER OF ATOMS 
4 
ITEM: BOX BOUNDS 
0.000000e+00 2.000000e+00 xlo xhi 
0.000000e+00 2.000000e+00 xlo xhi 
0.000000e+00 2.000000e+00 xlo xhi 
ITEM: ATOMS id type x y z 
0 0 4.687500e-01 1.668945e+00 5.000000e-01 
1 1 8.797889e-01 1.825589e-01 8.363110e-01 
2 2 1.241882e+00 1.689838e-01 5.698576e-01 
3 3 2.812500e-01 1.421875e+00 1.500000e+00 
ITEM: TIMESTEP 
0 
ITEM: NUMBER OF ATOMS 
4 
ITEM: BOX BOUNDS 
0.000000e+00 2.000000e+00 xlo xhi 
0.000000e+00 2.000000e+00 xlo xhi 
0.000000e+00 2.000000e+00 xlo xhi 
ITEM: ATOMS id type x y z 
0 0 6.562500e-01 1.913574e+00 1.375000e+00 
1 1 9.053309e-01 1.414260e+00 1.014235e+00 
2 2 1.060482e+00 3.239408e-01 1.098152e+00 
3 3 1.750000e+00 1.785156e+00 1.500000e+00 
ITEM: TIMESTEP 
0 
ITEM: NUMBER OF ATOMS 
4 
ITEM: BOX BOUNDS 
0.000000e+00 2.000000e+00 xlo xhi 
0.000000e+00 2.000000e+00 xlo xhi 
0.000000e+00 2.000000e+00 xlo xhi 
ITEM: ATOMS id type x y z 
0 0 1.312500e+00 9.335938e-01 1.875000e-01 
1 1 1.416579e+00 4.304585e-01 1.789981e+00 
2 2 1.124183e+00 1.420304e+00 8.658728e-02 
3 3 5.312500e-01 6.567383e-01 1.437500e+00 
ITEM: TIMESTEP 
0 
ITEM: NUMBER OF ATOMS 
4 
ITEM: BOX BOUNDS 
0.000000e+00 2.000000e+00 xlo xhi 
0.000000e+00 2.000000e+00 xlo xhi 
0.000000e+00 2.000000e+00 xlo xhi 
ITEM: ATOMS id type x y z 
0 0 6.562500e-01 1.229492e+00 1.250000e-01 
1 1 1.751067e+00 1.457330e+00 7.962821e-01 
2 2 1.502704e+00 8.575978e-02 1.573591e-01 
3 3 6.250000e-01 6.748047e-01 1.812500e+00 
ITEM: TIMESTEP 
0 
ITEM: NUMBER OF ATOMS 
4 
ITEM: BOX BOUNDS 
0.000000e+00 2.000000e+00 xlo xhi 
0.000000e+00 2.000000e+00 xlo xhi 
0.000000e+00 2.000000e+00 xlo xhi 
ITEM: ATOMS id type x y z 
0 0 7.656250e-01 4.658203e-01 3.125000e-01 
1 1 1.832224e+00 1.590500e+00 7.274415e-01 
2 2 8.363770e-01 3.915930e-01 1.649533e+00 
3 3 1.312500e+00 1.007324e+00 1.312500e+00 
ITEM: TIMESTEP 
0 
ITEM: NUMBER OF ATOMS 
4 
ITEM: BOX BOUNDS 
0.000000e+00 2.000000e+00 xlo xhi 
0.000000e+00 2.000000e+00 xlo xhi 
0.000000e+00 2.000000e+00 xlo xhi 
ITEM: ATOMS id type x y z 
0 0 1.531250e+00 1.389160e+00 3.750000e-01 
1 1 1.247470e+00 5.383789e-01 9.453720e-01 
2 2 1.885388e+00 1.552411e-01 8.644146e-01 
3 3 1.875000e-01 1.385254e+00 1.437500e+00 
ITEM: TIMESTEP 
0 
ITEM: NUMBER OF ATOMS 
4 
ITEM: BOX BOUNDS 
0.000000e+00 2.000000e+00 xlo xhi 
0.000000e+00 2.000000e+00 xlo xhi 
0.000000e+00 2.000000e+00 xlo xhi 
ITEM: ATOMS id type x y z 
0 0 7.500000e-01 4.697266e-01 1.250000e-01 
1 1 1.275561e+00 5.325383e-02 1.964461e+00 
2 2 1.050206e+00 1.425030e+00 1.963862e+00 
3 3 1.890625e+00 1.533203e+00 6.875000e-01 
ITEM: TIMESTEP 
0 
ITEM: NUMBER OF ATOMS 
4 
ITEM: BOX BOUNDS 
0.000000e+00 2.000000e+00 xlo xhi 
0.000000e+00 2.000000e+00 xlo xhi 
0.000000e+00 2.000000e+00 xlo xhi 
ITEM: ATOMS id type x y z 
0 0 1.250000e-01 1.124023e+00 1.375000e+00 
1 1 6.312556e-02 4.216117e-01 1.150132e+00 
2 2 3.440003e-01 6.120961e-01 8.198422e-01 
3 3 7.031250e-01 1.348145e+00 1.000000e+00 
ITEM: TIMESTEP 
0 
ITEM: NUMBER OF ATOMS 
4 
ITEM: BOX BOUNDS 
0.000000e+00 2.000000e+00 xlo xhi 
0.000000e+00 2.000000e+00 xlo xhi 
0.000000e+00 2.000000e+00 xlo xhi 
ITEM: ATOMS id type x y z 
0 0 1.375000e+00 7.280273e-01 8.750000e-01 
1 1 2.145387e-01 5.547863e-01 3.795144e-01 
2 2 1.481784e+00 1.385018e+00 1.077850e+00 
3 3 4.531250e-01 8.857422e-01 1.812500e+00 
ITEM: TIMESTEP 
0 
ITEM: NUMBER OF ATOMS 
4 
ITEM: BOX BOUNDS 
0.000000e+00 2.000000e+00 xlo xhi 
0.000000e+00 2.000000e+00 xlo xhi 
0.000000e+00 2.000000e+00 xlo xhi 
ITEM: ATOMS id type x y z 
0 0 1.734375e+00 1.661133e+00 1.312500e+00 
1 1 7.538345e-01 1.150759e+00 1.982704e+00 
2 2 1.548499e+00 1.601295e-01 5.657187e-01 
3 3 1.750000e+00 6.342773e-01 0.000000e+00 
ITEM: TIMESTEP 
0 
ITEM: NUMBER OF ATOMS 
4 
ITEM: BOX BOUNDS 
0.000000e+00 2.000000e+00 xlo xhi 
0.000000e+00 2.000000e+00 xlo xhi 
0.000000e+00 2.000000e+00 xlo xhi 
ITEM: ATOMS id type x y z 
0 0 1.687500e+00 8.261719e-01 1.875000e+00 
1 1 1.923173e+00 4.364881e-01 6.388691e-01 
2 2 1.892153e+00 7.923354e-01 5.929207e-03 
3 3 8.906250e-01 1.609375e+00 2.500000e-01 
ITEM: TIMESTEP 
0 
ITEM: NUMBER OF ATOMS 
4 
ITEM: BOX BOUNDS 
0.000000e+00 2.000000e+00 xlo xhi 
0.000000e+00 2.000000e+00 xlo xhi 
0.000000e+00 2.000000e+00 xlo xhi 
ITEM: ATOMS id type x y z 
0 0 7.656250e-01 7.666016e-02 4.375000e-01 
1 1 2.909826e-01 5.456350e-01 6.885002e-01 
2 2 6.898754e-01 1.002570e-01 1.983906e+00 
3 3 1.562500e+00 9.882812e-01 1.187500e+00 
ITEM: TIMESTEP 
0 
ITEM: NUMBER OF ATOMS 
4 
ITEM: BOX BOUNDS 
0.000000e+00 2.000000e+00 xlo xhi 
0.000000e+00 2.000000e+00 xlo xhi 
0.000000e+00 2.000000e+00 xlo xhi 
ITEM: ATOMS id type x y z 
0 0 1.140625e+00 9.672852e-01 9.375000e-01 
1 1 1.914040e+00 1.972031e+00 4.369461e-01 
2 2 8.145868e-01 1.163294e+00 8.155777e-01 
3 3 2.031250e-01 1.659668e+00 1.312500e+00 
ITEM: TIMESTEP 
0 
ITEM: NUMBER OF ATOMS 
4 
ITEM: BOX BOUNDS 
0.000000e+00 2.000000e+00 xlo xhi 
0.000000e+00 2.000000e+00 xlo xhi 
0.000000e+00 2.000000e+00 xlo xhi 
ITEM: ATOMS id type x y z 
0 0 5.781250e-01 1.222168e+00 1.562500e+00 
1 1 1.585680e+00 1.392944e-01 1.740755e+00 
2 2 2.499693e-01 1.695356e+00 6.942785e-01 
3 3 2.500000e-01 7.617188e-01 6.250000e-01 
ITEM: TIMESTEP 
0 
ITEM: NUMBER OF ATOMS 
4 
ITEM: BOX BOUNDS 
0.000000e+00 2.000000e+00 xlo xhi 
0.000000e+00 2.000000e+00 xlo xhi 
0.000000e+00 2.000000e+00 xlo xhi 
ITEM: ATOMS id type x y z 
0 0 5.156250e-01 5.668945e-01 0.000000e+00 
1 1 1.190146e-01 9.402038e-02 1.356093e+00 
2 2 1.925939e+00 6.451200e-03 1.365423e+00 
3 3 5.468750e-01 1.216797e+00 1.562500e+00 
ITEM: TIMESTEP 
0 
ITEM: NUMBER OF ATOMS 
4 
ITEM: BOX BOUNDS 
0.000000e+00 2.000000e+00 xlo xhi 
0.000000e+00 2.000000e+00 xlo xhi 
0.000000e+00 2.000000e+00 xlo xhi 
ITEM: ATOMS id type x y z 
0 0 3.281250e-01 1.414551e+00 8.750000e-01 
1 1 1.609444e+00 6.189112e-01 7.025542e-01 
2 2 4.531447e-01 1.666909e+00 1.181284e+00 
3 3 1.031250e+00 2.416992e-01 4.375000e-01 
ITEM: TIMESTEP 
0 
ITEM: NUMBER OF ATOMS 
4 
ITEM: BOX BOUNDS 
0.000000e+00 2.000000e+00 xlo xhi 
0.000000e+00 2.000000e+00 xlo xhi 
0.000000e+00 2.000000e+00 xlo xhi 
ITEM: ATOMS id type x y z 
0 0 8.750000e-01 1.044922e+00 7.500000e-01 
1 1 1.567174e+00 4.385242e-01 1.653427e+00 
2 2 3.667170e-01 2.092831e-01 1.753925e-01 
3 3 3.750000e-01 3.041992e-01 6.875000e-01 
ITEM: TIMESTEP 
0 
ITEM: NUMBER OF ATOMS 
4 
ITEM: BOX BOUNDS 
0.000000e+00 2.000000e+00 xlo xhi 
0.000000e+00 2.000000e+00 xlo xhi 
0.000000e+00 2.000000e+00 xlo xhi 
ITEM: ATOMS id type x y z 
0 0 1.406250e-01 1.228027e+00 1.125000e+00 
1 1 1.649110e+00 1.693353e-01 1.593327e+00 
2 2 1.635243e+00 1.443644e-01 4.061042e-01 
3 3 1.781250e+00 6.499023e-01 6.250000e-01 
ITEM: TIMESTEP 
0 
ITEM: NUMBER OF ATOMS 
4 
ITEM: BOX BOUNDS 
0.000000e+00 2.000000e+00 xlo xhi 
0.000000e+00 2.000000e+00 xlo xhi 
0.000000e+00 2.000000e+00 xlo xhi 
ITEM: ATOMS id type x y z 
0 0 1.093750e+00 1.338867e+00 3.125000e-01 
1 1 1.158265e+00 1.168713e+00 1.998823e+00 
2 2 4.671430e-01 1.337306e+00 1.307090e+00 
3 3 8.281250e-01 6.020508e-01 6.875000e-01 
ITEM: TIMESTEP 
0 
ITEM: NUMBER OF ATOMS 
4 
ITEM: BOX BOUNDS 
0.000000e+00 2.000000e+00 xlo xhi 
0.000000e+00 2.000000e+00 xlo xhi 
0.000000e+00 2.000000e+00 xlo xhi 
ITEM: ATOMS id type x y z 
0 0 1.171875e+00 4.746094e-01 1.437500e+00 
1 1 1.196409e+00 1.515657e+00 1.154138e+00 
2 2 1.937957e-01 9.726434e-01 9.802878e-02 
3 3 1.546875e+00 1.728516e+00 1.312500e+00 
ITEM: TIMESTEP 
0 
ITEM: NUMBER OF ATOMS 
4 
ITEM: BOX BOUNDS 
0.000000e+00 2.000000e+00 xlo xhi 
0.000000e+00 2.000000e+00 xlo xhi 
0.000000e+00 2.000000e+00 xlo xhi 
ITEM: ATOMS id type x y z 
0 0 1.062500e+00 1.298340e+00 5.000000e-01 
1 1 1.068504e+00 3.370584e-01 1.819845e-01 
2 2 1.527161e+00 1.973194e+00 1.047282e-01 
3 3 1.062500e+00 1.319336e+00 1.062500e+00 
ITEM: TIMESTEP 
0 
ITEM: NUMBER OF ATOMS 
4 
ITEM: BOX BOUNDS 
0.000000e+00 2.000000e+00 xlo xhi 
0.000000e+00 2.000000e+00 xlo xhi 
0.000000e+00 2.000000e+00 xlo xhi 
ITEM: ATOMS id type x y z 
0 0 1.546875e+00 1.362305e+00 1.625000e+00 
1 1 7.196167e-01 1.604240e+00 1.958564e-01 
2 2 1.809785e+00 8.496825e-02 1.856737e+00 
3 3 1.484375e+00 1.069336e-01 1.437500e+00 
ITEM: TIMESTEP 
0 
ITEM: NUMBER OF ATOMS 
4 
ITEM: BOX BOUNDS 
0.000000e+00 2.000000e+00 xlo xhi 
0.000000e+00 2.000000e+00 xlo xhi 
0.000000e+00 2.000000e+00 xlo xhi 
ITEM: ATOMS id type x y z 
0 0 6.250000e-01 1.470703e+00 8.750000e-01 
1 1 1.829488e+00 1.840778e+00 1.071759e+00 
2 2 1.788249e+00 8.417172e-01 1.994640e+00 
3 3 1.406250e-01 1.228027e+00 1.437500e+00 
ITEM: TIMESTEP 
0 
ITEM: NUMBER OF ATOMS 
4 
ITEM: BOX BOUNDS 
0.000000e+00 2.000000e+00 xlo xhi 
0.000000e+00 2.000000e+00 xlo xhi 
0.000000e+00 2.000000e+00 xlo xhi 
ITEM: ATOMS id type x y z 
0 0 1.250000e-01 1.872070e+00 1.562500e+00 
1 1 2.018164e-01 6.709707e-01 1.530812e+00 
2 2 1.441565e+00 4.286916e-01 5.411785e-01 
3 3 1.140625e+00 6.298828e-01 9.375000e-01 
ITEM: TIMESTEP 
0 
ITEM: NUMBER OF ATOMS 
4 
ITEM: BOX BOUNDS 
0.000000e+00 2.000000e+00 xlo xhi 
0.000000e+00 2.000000e+00 xlo xhi 
0.000000e+00 2.000000e+00 xlo xhi 
ITEM: ATOMS id type x y z 
0 0 1.343750e+00 6.318359e-01 2.500000e-01 
1 1 1.799981e+00 5.349053e-01 4.891976e-01 
2 2 1.156209e+00 3.480052e-02 2.996051e-01 
3 3 1.281250e+00 6.225586e-01 6.875000e-01 
ITEM: TIMESTEP 
0 
ITEM: NUMBER OF ATOMS 
4 
ITEM: BOX BOUNDS 
0.000000e+00 2.000000e+00 xlo xhi 
0.000000e+00 2.000000e+00 xlo xhi 
0.000000e+00 2.000000e+00 xlo xhi 
ITEM: ATOMS id type x y z 
0 0 1.609375e+00 1.873535e+00 6.250000e-02 
1 1 1.716927e+00 5.784677e-01 1.202005e+00 
2 2 2.086621e-02 1.944687e+00 1.451664e+00 
3 3 1.203125e+00 1.641602e+00 1.437500e+00 
ITEM: TIMESTEP 
0 
ITEM: NUMBER OF ATOMS 
4 
ITEM: BOX BOUNDS 
0.000000e+00 2.000000e+00 xlo xhi 
0.000000e+00 2.000000e+00 xlo xhi 
0.000000e+00 2.000000e+00 xlo xhi 
ITEM: ATOMS id type x y z 
0 0 1.140625e+00 8.911133e-01 8.125000e-01 
1 1 1.818279e+00 5.417893e-02 5.920537e-02 
2 2 7.066807e-01 1.748632e+00 1.129794e+00 
3 3 1.093750e-01 1.557129e+00 6.875000e-01 
ITEM: TIMESTEP 
0 
ITEM: NUMBER OF ATOMS 
4 
ITEM: BOX BOUNDS 
0.000000e+00 2.000000e+00 xlo xhi 
0.000000e+00 2.000000e+00 xlo xhi 
0.000000e+00 2.000000e+00 xlo xhi 
ITEM: ATOMS id type x y z 
0 0 1.531250e+00 1.567871e+00 1.250000e+00 
1 1 8.418285e-01 1.795759e+00 1.713629e+00 