ITEM: TIMESTEP 
0 
ITEM: NUMBER OF ATOMS 
256 
ITEM: BOX BOUNDS 
0.000000e+00 8.000000e+00 xlo xhi 
0.000000e+00 8.000000e+00 xlo xhi 
0.000000e+00 8.000000e+00 xlo xhi 
ITEM: ATOMS id type x y z 
0 0 2.526553e+00 3.622908e+00 2.135334e+00 
1 1 2.819867e+00 5.415955e-01 5.012118e+00 
2 2 1.898667e+00 1.883753e+00 6.194978e+00 
3 3 6.141611e+00 6.907216e+00 6.221110e+00 
4 4 1.741019e+00 4.962157e+00 1.130384e+00 
5 5 2.183877e+00 4.391813e+00 7.720353e+00 
6 6 7.506970e+00 3.777006e-01 1.806686e-02 
7 7 6.263228e+00 4.844930e+00 8.962312e-01 
8 8 6.526723e+00 6.835610e+00 5.018705e+00 
9 9 4.348598e+00 4.716909e+00 1.854598e+00 
10 10 6.545001e+00 1.967069e+00 6.099492e-01 
11 11 4.098033e+00 4.038306e-01 2.053825e+00 
12 12 2.650068e+00 3.138889e+00 3.376808e+00 
13 13 1.074476e+00 4.055283e+00 6.472321e+00 
14 14 6.920730e-01 6.594355e+00 2.086148e+00 
15 15 7.712751e+00 5.190328e+00 1.909853e+00 
16 16 7.638707e-01 5.559653e+00 3.505673e+00 
17 17 2.471970e+00 5.419822e-01 3.350434e+00 
18 18 7.513531e+00 1.444077e+00 1.556739e+00 
19 19 7.005607e+00 2.657661e+00 5.247405e+00 
20 20 5.113043e-01 9.954613e-01 3.320434e+00 
21 21 5.463208e+00 8.045658e-01 7.146494e+00 
22 22 1.061827e-02 4.844540e+00 1.691250e-01 
23 23 3.757358e-01 1.133012e+00 2.016778e+00 
24 24 6.814236e+00 3.824125e+00 7.922913e+00 
25 25 5.159826e+00 5.137948e+00 6.374929e+00 
26 26 4.717450e+00 6.802455e+00 2.529888e+00 
27 27 9.184275e-01 7.840465e+00 6.408636e+00 
28 28 7.987437e+00 4.131386e+00 2.763614e+00 
29 29 2.514671e+00 3.204418e+00 5.216378e+00 
30 30 5.416139e+00 4.249761e+00 1.403269e+00 
31 31 8.655121e-01 2.334688e+00 6.822245e+00 
32 32 6.517998e+00 7.669113e+00 7.555704e+00 
33 33 6.428641e+00 3.709761e-01 5.013757e+00 
34 34 1.685942e+00 7.248805e+00 7.598346e+00 
35 35 7.476656e-01 3.521232e+00 1.212227e+00 
36 36 5.313850e+00 1.916800e+00 1.735007e+00 
37 37 7.700301e-01 6.626619e+00 4.106690e+00 
38 38 7.190455e+00 6.489632e+00 7.431267e+00 
39 39 3.936973e+00 5.958551e+00 7.372766e+00 
40 40 6.311453e+00 2.761886e+00 4.341978e+00 
41 41 7.930288e-01 2.095887e+00 4.471666e+00 
42 42 7.455282e+00 5.778348e+00 5.067712e+00 
43 43 5.803586e+00 6.404128e+00 4.578258e-01 
44 44 9.694135e-01 6.793487e+00 6.637601e-01 
45 45 2.266217e+00 5.134373e+00 5.159921e+00 
46 46 4.951337e+00 2.962369e+00 1.488489e+00 
47 47 2.602804e+00 4.746320e+00 3.124882e+00 
48 48 1.569796e+00 2.345833e+00 2.306385e+00 
49 49 9.701071e-01 5.910506e+00 6.633952e+00 
50 50 1.020137e-01 7.304745e+00 3.798090e+00 
51 51 4.525232e+00 6.751483e+00 3.582894e+00 
52 52 3.887844e+00 5.343243e-01 3.663814e+00 
53 53 1.900064e+00 7.712340e+00 3.652439e+00 
54 54 4.391720e+00 2.223595e+00 2.995878e+00 
55 55 5.926005e+00 3.451804e+00 6.223614e+00 
56 56 5.851374e+00 3.614335e-01 1.895587e+00 
57 57 6.946798e+00 5.550985e+00 3.191455e+00 
58 58 7.366386e+00 2.231294e+00 8.055311e-03 
59 59 2.610328e+00 6.784185e+00 5.930582e-01 
60 60 6.981285e+00 4.365133e+00 5.383060e+00 
61 61 3.787603e+00 3.095249e+00 4.960722e+00 
62 62 6.332345e+00 2.934243e+00 1.526430e-01 
63 63 5.721798e+00 5.501128e+00 7.310345e+00 
64 64 5.747867e+00 4.027961e-01 7.236357e-01 
65 65 3.121293e+00 3.085556e+00 1.298833e+00 
66 66 7.115306e+00 4.009194e+00 3.493495e+00 
67 67 2.826561e+00 2.410714e+00 6.595538e+00 
68 68 3.022195e+00 7.463631e+00 6.765274e+00 
69 69 5.792930e+00 5.992134e+00 3.435666e+00 
70 70 6.000837e+00 4.609335e+00 4.668935e+00 
71 71 4.139236e+00 1.535858e+00 6.917995e+00 
72 72 3.270648e+00 5.578310e+00 2.484874e-01 
73 73 3.976235e+00 1.039823e-01 7.587010e+00 
74 74 1.499437e+00 7.572987e+00 5.027961e+00 
75 75 7.140893e+00 3.246703e+00 1.270622e+00 
76 76 3.723936e+00 6.464560e+00 5.814104e+00 
77 77 1.311972e+00 2.153736e+00 6.467422e-01 
78 78 7.567817e+00 6.726670e+00 1.088052e+00 
79 79 4.563285e+00 3.567215e+00 4.506071e+00 
80 80 4.960683e+00 7.830054e+00 1.717353e+00 
81 81 3.494660e+00 6.936492e+00 4.026529e+00 
82 82 3.425057e+00 4.483100e+00 7.362224e+00 
83 83 7.565302e+00 7.841629e+00 6.743360e+00 
84 84 5.198194e+00 5.279364e-02 3.840728e+00 
85 85 7.106975e+00 1.090160e+00 4.624021e+00 
86 86 4.987902e+00 4.167562e+00 7.771272e+00 
87 87 3.611049e+00 4.182035e+00 3.677308e+00 
88 88 3.018004e+00 7.491488e+00 2.290502e+00 
89 89 7.256505e+00 3.664606e-01 1.464306e+00 
90 90 4.468140e+00 4.529594e+00 5.242720e+00 
91 91 4.387668e+00 3.637690e+00 6.421690e+00 
92 92 3.079579e+00 5.945793e+00 2.263554e+00 
93 93 2.558779e+00 4.843758e+00 6.734300e+00 
94 94 6.794109e+00 4.931908e+00 7.214344e+00 
95 95 1.231724e+00 1.372567e+00 5.050525e+00 
96 96 3.847503e+00 1.696964e+00 8.957033e-02 
97 97 7.985205e+00 3.535841e+00 3.349595e-01 
98 98 5.163298e+00 1.624235e+00 4.148699e-01 
99 99 2.549376e+00 9.480793e-01 3.095771e-01 
100 100 3.706819e+00 5.440568e+00 4.947842e+00 
101 101 3.998910e+00 2.071530e+00 4.042701e+00 
102 102 1.659253e+00 1.849461e+00 7.216659e+00 
103 103 4.354894e+00 7.208883e+00 6.127728e+00 
104 104 5.310973e+00 1.996499e+00 5.723813e+00 
105 105 2.631038e+00 5.812551e+00 6.026710e+00 
106 106 5.865465e+00 2.079165e+00 3.054438e+00 
107 107 4.982009e+00 6.718659e+00 7.159848e+00 
108 108 1.498925e+00 2.392056e+00 3.530181e+00 
109 109 3.398055e+00 2.132476e+00 5.166742e+00 
110 110 2.167828e+00 1.380241e+00 2.391978e+00 
111 111 7.996953e+00 2.987163e+00 5.927612e+00 
112 112 5.679382e-01 4.336488e+00 1.770870e+00 
113 113 7.109027e+00 7.216182e+00 3.930960e+00 
114 114 9.020779e-01 6.657538e+00 5.758079e+00 
115 115 1.522002e+00 3.126466e+00 6.204868e+00 
116 116 5.167280e+00 7.598941e+00 4.951641e+00 
117 117 2.810350e+00 5.506424e+00 3.819681e+00 
118 118 1.218034e+00 7.958088e+00 1.015634e+00 
119 119 1.743385e+00 2.385673e+00 4.925271e+00 
120 120 2.087989e+00 5.911428e+00 3.058851e+00 
121 121 6.639923e+00 2.285461e+00 6.159826e+00 
122 122 8.392670e-01 5.399033e+00 5.601068e+00 
123 123 2.255268e+00 4.099725e+00 4.517823e+00 
124 124 2.952252e-01 4.125154e+00 4.624632e+00 
125 125 7.085064e+00 1.243407e+00 3.350574e+00 
126 126 3.814675e+00 1.153112e+00 5.991984e+00 
127 127 3.473922e+00 3.311258e-01 4.854003e-01 
128 128 3.485291e+00 7.503533e+00 5.174603e+00 
129 129 4.205755e+00 5.696007e+00 2.797441e+00 
130 130 3.318895e+00 6.220841e+00 1.255312e+00 
131 131 4.699906e+00 3.857448e+00 3.365737e+00 
132 132 5.283142e+00 7.125554e+00 1.034893e+00 
133 133 7.155747e-01 5.422571e+00 6.302645e-01 
134 134 7.587583e+00 2.794458e+00 2.267980e+00 
135 135 5.979539e+00 7.434449e+00 3.626795e+00 
136 136 7.573148e+00 6.570607e+00 2.156652e+00 
137 137 1.891109e+00 6.204569e+00 7.417769e-02 
138 138 6.176281e+00 5.378772e+00 6.124621e+00 
139 139 7.384456e+00 7.859029e+00 3.069842e+00 
140 140 5.182921e+00 8.399275e-01 5.767939e+00 
141 141 5.364865e+00 4.842390e+00 3.340200e+00 
142 142 4.976747e+00 2.698678e+00 4.194019e+00 
143 143 4.163849e+00 3.330578e+00 1.372600e-01 
144 144 9.608912e-01 7.233705e+00 3.012777e+00 
145 145 7.768506e+00 2.306815e+00 4.484328e+00 
146 146 7.726832e+00 1.466352e+00 6.014460e+00 
147 147 3.109308e+00 1.552817e+00 4.356070e+00 
148 148 7.721375e-01 1.884432e+00 2.736727e+00 
149 149 2.770787e+00 6.046081e+00 4.772250e+00 
150 150 6.268289e+00 4.413278e-01 6.618280e+00 
151 151 1.724126e+00 7.839452e-01 6.512952e+00 
152 152 3.512006e-01 8.447119e-01 6.875363e+00 
153 153 1.699544e+00 7.937165e-02 2.401894e+00 
154 154 7.473604e+00 5.177835e+00 4.172857e+00 
155 155 3.813150e-01 1.033149e+00 4.532486e+00 
156 156 5.768962e-01 2.617503e+00 2.035664e+00 
157 157 1.182488e+00 8.088439e-01 1.884548e-01 
158 158 5.645772e+00 1.012752e+00 3.038731e+00 
159 159 3.010808e+00 3.698482e+00 4.876645e-01 
160 160 5.099407e-03 7.621924e+00 5.781952e+00 
161 161 1.277584e+00 4.700018e+00 3.243975e+00 
162 162 6.719604e+00 4.336164e+00 2.525972e+00 
163 163 6.161531e+00 7.356561e+00 1.548229e+00 
164 164 5.376288e+00 5.975101e+00 5.433736e+00 
165 165 6.288170e+00 2.776935e+00 2.173442e+00 
166 166 4.773319e+00 5.264353e+00 7.561590e+00 
167 167 9.394294e-02 4.618906e+00 6.652620e+00 
168 168 7.023123e+00 4.219075e+00 1.514265e+00 
169 169 2.903911e+00 7.603017e+00 3.547226e+00 
170 170 7.733088e+00 2.959622e+00 7.393439e+00 
171 171 2.585756e+00 2.428148e+00 4.372077e+00 
172 172 1.251721e+00 3.401688e+00 2.451020e+00 
173 173 6.622151e-01 8.474403e-01 1.095629e+00 
174 174 2.675499e+00 2.910950e+00 7.754954e+00 
175 175 3.314179e+00 3.873121e+00 6.492136e+00 
176 176 1.602740e+00 7.000220e+00 1.425467e+00 
177 177 3.869988e+00 5.084220e+00 6.073920e+00 
178 178 5.974204e+00 1.306245e+00 4.185066e+00 
179 179 3.275212e+00 1.879810e+00 2.495258e+00 
180 180 5.853205e+00 3.110759e+00 7.269009e+00 
181 181 7.840568e+00 3.218062e+00 4.932339e+00 
182 182 1.740652e+00 3.115414e+00 2.716349e-01 
183 183 4.660392e+00 6.679978e+00 4.717537e+00 
184 184 4.683024e+00 6.010510e+00 1.000639e+00 
185 185 5.515101e+00 3.552335e+00 5.170417e+00 
186 186 3.929346e+00 7.051392e+00 2.275814e-01 
187 187 4.795563e+00 2.873999e+00 5.826565e+00 
188 188 6.432591e+00 6.155711e+00 1.742690e+00 
189 189 5.214221e+00 5.987331e+00 2.181020e+00 
190 190 3.737872e+00 3.787014e+00 2.158908e+00 
191 191 1.250139e+00 5.045318e+00 7.347695e+00 
192 192 1.266799e+00 4.241352e+00 5.177614e+00 
193 193 7.185311e+00 3.981752e+00 7.002546e+00 
194 194 6.464496e-02 1.187074e-01 2.064313e+00 
195 195 2.791596e+00 5.597797e-01 6.722011e+00 
196 196 1.159227e+00 3.782168e-01 3.905582e+00 
197 197 3.821456e+00 1.767166e+00 1.527415e+00 
198 198 7.685263e+00 6.649326e+00 6.444304e+00 
199 199 7.093393e+00 5.528529e+00 9.203003e-01 
200 200 6.111321e+00 2.151725e+00 7.096778e+00 
201 201 9.286073e-01 3.479280e+00 4.189138e+00 
202 202 3.885649e-01 7.335905e+00 7.913652e+00 
203 203 3.974959e+00 4.758774e+00 3.213449e-01 
204 204 7.227152e+00 5.536694e+00 6.467948e+00 
205 205 7.766077e+00 6.438004e+00 3.360038e+00 
206 206 5.065366e+00 7.883619e+00 6.681906e+00 
207 207 1.811382e+00 3.762414e+00 1.080429e+00 
208 208 1.108006e-01 2.725217e+00 3.295461e+00 
209 209 1.457406e-01 7.755337e+00 1.021748e+00 
210 210 2.051472e+00 2.780315e+00 1.370355e+00 
211 211 4.396605e+00 1.842812e+00 5.195625e+00 
212 212 5.749195e+00 4.499059e+00 7.198433e+00 
213 213 5.623662e+00 3.610124e+00 2.504345e+00 
214 214 1.137149e+00 4.885209e+00 4.298241e+00 
215 215 6.117640e+00 3.530417e+00 3.378867e+00 
216 216 7.854060e+00 5.945187e+00 3.294695e-01 
217 217 7.955741e-01 2.375416e+00 5.796587e+00 
218 218 4.729164e+00 2.277205e-01 5.289949e-01 
219 219 2.063430e+00 5.295088e+00 2.253794e+00 
220 220 1.879747e+00 5.780723e+00 4.300945e+00 
221 221 6.331367e-02 5.773234e+00 7.343445e+00 
222 222 1.964286e+00 6.672961e+00 4.920832e+00 
223 223 2.810840e+00 6.448193e+00 7.460940e+00 
224 224 6.106465e-01 4.996559e-01 5.720605e+00 
225 225 6.234185e+00 5.202531e+00 2.196863e+00 
226 226 3.608238e+00 2.904925e+00 5.941758e+00 
227 227 5.162145e+00 4.845528e+00 5.103629e-01 
228 228 3.277845e+00 9.813195e-01 7.590532e+00 
229 229 3.421462e+00 4.430549e+00 5.325528e+00 
230 230 2.716915e+00 1.132045e-02 5.871130e+00 
231 231 5.424824e+00 5.455142e+00 4.235574e+00 
232 232 6.366527e+00 1.043877e+00 2.819023e-02 
233 233 4.864640e+00 1.576440e+00 3.898116e+00 
234 234 6.517136e+00 6.883454e+00 2.662116e+00 
235 235 3.692504e+00 4.268174e+00 1.199778e+00 
236 236 2.637877e+00 1.874849e+00 3.506292e+00 
237 237 4.959124e+00 2.098842e+00 7.095549e+00 
238 238 2.262432e+00 8.694552e-01 1.317070e+00 
239 239 7.364894e+00 5.087970e-01 5.655511e+00 
240 240 1.791915e+00 5.130169e-01 5.377974e+00 
241 241 7.494735e+00 2.343679e+00 1.002516e+00 
242 242 4.449531e+00 5.542864e-01 4.969724e+00 
243 243 6.196605e+00 1.462199e+00 2.301141e+00 
244 244 3.242233e+00 5.081693e+00 1.602847e+00 
245 245 7.775300e+00 7.910203e+00 4.787507e+00 
246 246 3.725473e+00 6.732276e+00 2.367369e+00 
247 247 1.917400e+00 7.354114e+00 6.302890e+00 
248 248 5.526556e+00 7.675624e+00 2.588097e+00 
249 249 1.091980e+00 3.733605e+00 7.544350e+00 
250 250 6.393522e+00 7.583322e+00 5.664980e-01 
251 251 2.655001e+00 2.227992e+00 5.206509e-01 
252 252 2.456383e+00 7.526907e+00 4.730867e+00 
253 253 1.830874e+00 6.836295e+00 2.449027e+00 
254 254 7.961564e+00 1.381733e+00 5.931478e-01 
255 255 2.394073e+00 6.630088e+00 3.712846e+00 
ITEM: TIMESTEP 
0 
ITEM: NUMBER OF ATOMS 
256 
ITEM: BOX BOUNDS 
0.000000e+00 8.000000e+00 xlo xhi 
0.000000e+00 8.000000e+00 xlo xhi 
0.000000e+00 8.000000e+00 xlo xhi 
ITEM: ATOMS id type x y z 
0 0 2.527895e+00 3.621598e+00 2.134844e+00 
1 1 2.819637e+00 5.429438e-01 5.013393e+00 
2 2 1.900225e+00 1.884263e+00 6.194963e+00 
3 3 6.142616e+00 6.906316e+00 6.221308e+00 
4 4 1.742527e+00 4.962291e+00 1.130965e+00 
5 5 2.183132e+00 4.391257e+00 7.719445e+00 
6 6 7.507550e+00 3.769857e-01 1.860029e-02 
7 7 6.261916e+00 4.845416e+00 8.959088e-01 
8 8 6.528009e+00 6.834882e+00 5.019077e+00 
9 9 4.350283e+00 4.716208e+00 1.856012e+00 
10 10 6.544607e+00 1.968171e+00 6.108414e-01 
11 11 4.098916e+00 4.042542e-01 2.053741e+00 
12 12 2.650363e+00 3.138638e+00 3.375049e+00 
13 13 1.072954e+00 4.054317e+00 6.473411e+00 
14 14 6.906218e-01 6.592932e+00 2.087134e+00 
15 15 7.711691e+00 5.189316e+00 1.910789e+00 
16 16 7.636936e-01 5.558842e+00 3.506140e+00 
17 17 2.472815e+00 5.425696e-01 3.350621e+00 
18 18 7.513767e+00 1.442603e+00 1.557957e+00 
19 19 7.004178e+00 2.658685e+00 5.246907e+00 
20 20 5.125450e-01 9.940444e-01 3.319973e+00 
21 21 5.463705e+00 8.033320e-01 7.145719e+00 
22 22 1.092210e-02 4.846027e+00 1.673369e-01 
23 23 3.762396e-01 1.132104e+00 2.017692e+00 
24 24 6.814767e+00 3.823844e+00 7.923789e+00 
25 25 5.159570e+00 5.138462e+00 6.373249e+00 
26 26 4.716403e+00 6.803199e+00 2.529210e+00 
27 27 9.169846e-01 7.839596e+00 6.409234e+00 
28 28 7.986420e+00 4.131950e+00 2.764437e+00 
29 29 2.516415e+00 3.205367e+00 5.217266e+00 
30 30 5.416364e+00 4.248748e+00 1.404846e+00 
31 31 8.649692e-01 2.336306e+00 6.821260e+00 
32 32 6.517195e+00 7.667803e+00 7.556267e+00 
33 33 6.427167e+00 3.713681e-01 5.013285e+00 
34 34 1.684622e+00 7.248855e+00 7.597555e+00 
35 35 7.490821e-01 3.520962e+00 1.212113e+00 
36 36 5.315254e+00 1.916920e+00 1.736284e+00 
37 37 7.702673e-01 6.626247e+00 4.106704e+00 
38 38 7.190665e+00 6.489234e+00 7.432906e+00 
39 39 3.938352e+00 5.958460e+00 7.373517e+00 
40 40 6.310057e+00 2.760850e+00 4.341444e+00 
41 41 7.939098e-01 2.095895e+00 4.470697e+00 
42 42 7.454523e+00 5.776951e+00 5.068363e+00 
43 43 5.805227e+00 6.404248e+00 4.578013e-01 
44 44 9.708081e-01 6.793110e+00 6.635961e-01 
45 45 2.265045e+00 5.133410e+00 5.160946e+00 
46 46 4.952670e+00 2.963863e+00 1.489372e+00 
47 47 2.604046e+00 4.746755e+00 3.125929e+00 
48 48 1.570375e+00 2.345481e+00 2.305712e+00 
49 49 9.685710e-01 5.909620e+00 6.633067e+00 
50 50 1.037960e-01 7.304662e+00 3.796427e+00 
51 51 4.525037e+00 6.752969e+00 3.584037e+00 
52 52 3.887740e+00 5.345718e-01 3.664462e+00 
53 53 1.900769e+00 7.711552e+00 3.651783e+00 
54 54 4.390652e+00 2.221914e+00 2.996603e+00 
55 55 5.925241e+00 3.452629e+00 6.223417e+00 
56 56 5.852185e+00 3.598085e-01 1.894691e+00 
57 57 6.947035e+00 5.550962e+00 3.191122e+00 
58 58 7.367237e+00 2.230279e+00 8.625798e-03 
59 59 2.611976e+00 6.785505e+00 5.939266e-01 
60 60 6.980847e+00 4.363354e+00 5.382676e+00 
61 61 3.787142e+00 3.094991e+00 4.961223e+00 
62 62 6.333425e+00 2.935142e+00 1.524272e-01 
63 63 5.721366e+00 5.500039e+00 7.311508e+00 
64 64 5.747350e+00 4.011820e-01 7.241866e-01 
65 65 3.122289e+00 3.085663e+00 1.300066e+00 
66 66 7.114977e+00 4.009114e+00 3.493614e+00 
67 67 2.827979e+00 2.409996e+00 6.596701e+00 
68 68 3.021838e+00 7.462156e+00 6.764790e+00 
69 69 5.792340e+00 5.993091e+00 3.436418e+00 
70 70 6.000613e+00 4.608487e+00 4.670363e+00 
71 71 4.138727e+00 1.534298e+00 6.919458e+00 
72 72 3.270360e+00 5.577193e+00 2.481176e-01 
73 73 3.975008e+00 1.026005e-01 7.585462e+00 
74 74 1.498055e+00 7.571563e+00 5.028924e+00 
75 75 7.139702e+00 3.245533e+00 1.271409e+00 
76 76 3.723418e+00 6.466289e+00 5.814091e+00 
77 77 1.311163e+00 2.154276e+00 6.472452e-01 
78 78 7.568163e+00 6.727011e+00 1.086758e+00 
79 79 4.564720e+00 3.566592e+00 4.504504e+00 
80 80 4.959690e+00 7.829291e+00 1.716336e+00 
81 81 3.494489e+00 6.938102e+00 4.028060e+00 
82 82 3.426169e+00 4.482936e+00 7.363219e+00 
83 83 7.563931e+00 7.843269e+00 6.741728e+00 
84 84 5.196607e+00 5.227798e-02 3.839213e+00 
85 85 7.106586e+00 1.091176e+00 4.624730e+00 
86 86 4.986336e+00 4.167193e+00 7.771011e+00 
87 87 3.611275e+00 4.181309e+00 3.678387e+00 
88 88 3.018373e+00 7.492419e+00 2.290450e+00 
89 89 7.256393e+00 3.661199e-01 1.463083e+00 
90 90 4.466769e+00 4.529400e+00 5.244064e+00 
91 91 4.387984e+00 3.637935e+00 6.421166e+00 
92 92 3.080189e+00 5.947202e+00 2.264979e+00 
93 93 2.559592e+00 4.844833e+00 6.735541e+00 
94 94 6.793911e+00 4.932231e+00 7.213913e+00 
95 95 1.230659e+00 1.374162e+00 5.051123e+00 
96 96 3.848153e+00 1.695733e+00 8.877454e-02 
97 97 7.983833e+00 3.537067e+00 3.355858e-01 
98 98 5.164780e+00 1.625059e+00 4.134826e-01 
99 99 2.548117e+00 9.480395e-01 3.096634e-01 
100 100 3.705536e+00 5.440459e+00 4.947377e+00 
101 101 3.997659e+00 2.072329e+00 4.042909e+00 
102 102 1.659617e+00 1.850003e+00 7.218062e+00 
103 103 4.355407e+00 7.208310e+00 6.127764e+00 
104 104 5.311076e+00 1.997283e+00 5.721987e+00 
105 105 2.629689e+00 5.813593e+00 6.026096e+00 
106 106 5.864641e+00 2.079643e+00 3.054002e+00 
107 107 4.983661e+00 6.719704e+00 7.158468e+00 
108 108 1.498811e+00 2.391691e+00 3.529880e+00 
109 109 3.396813e+00 2.133386e+00 5.167409e+00 
110 110 2.168540e+00 1.379768e+00 2.390702e+00 
111 111 7.995229e+00 2.987531e+00 5.926792e+00 
112 112 5.667487e-01 4.337466e+00 1.771837e+00 
113 113 7.108045e+00 7.217275e+00 3.929783e+00 
114 114 9.015786e-01 6.658466e+00 5.756671e+00 
115 115 1.521336e+00 3.124587e+00 6.204499e+00 
116 116 5.166449e+00 7.598008e+00 4.953236e+00 
117 117 2.811865e+00 5.508008e+00 3.818588e+00 
118 118 1.219528e+00 7.959432e+00 1.013901e+00 
119 119 1.742410e+00 2.386672e+00 4.923731e+00 
120 120 2.087387e+00 5.911379e+00 3.057734e+00 
121 121 6.638494e+00 2.284283e+00 6.158582e+00 
122 122 8.407301e-01 5.399382e+00 5.599659e+00 
123 123 2.253932e+00 4.099928e+00 4.518295e+00 
124 124 2.951727e-01 4.125986e+00 4.624088e+00 
125 125 7.085840e+00 1.241916e+00 3.349464e+00 
126 126 3.814664e+00 1.151862e+00 5.990934e+00 
127 127 3.472928e+00 3.319164e-01 4.856605e-01 
128 128 3.484584e+00 7.502565e+00 5.175102e+00 
129 129 4.205814e+00 5.696340e+00 2.796579e+00 
130 130 3.318000e+00 6.220971e+00 1.256625e+00 
131 131 4.698470e+00 3.858881e+00 3.365666e+00 
132 132 5.284751e+00 7.124693e+00 1.036292e+00 
133 133 7.153939e-01 5.422703e+00 6.286052e-01 
134 134 7.588671e+00 2.792781e+00 2.268771e+00 
135 135 5.978539e+00 7.435168e+00 3.627862e+00 
136 136 7.573335e+00 6.570055e+00 2.156865e+00 
137 137 1.891300e+00 6.203374e+00 7.517446e-02 
138 138 6.175160e+00 5.378068e+00 6.125213e+00 
139 139 7.385033e+00 7.858778e+00 3.070831e+00 
140 140 5.184400e+00 8.399560e-01 5.766407e+00 
141 141 5.365237e+00 4.842418e+00 3.338885e+00 
142 142 4.976603e+00 2.699224e+00 4.195101e+00 
143 143 4.164431e+00 3.329222e+00 1.387271e-01 
144 144 9.603223e-01 7.232238e+00 3.013635e+00 
145 145 7.768492e+00 2.307420e+00 4.482646e+00 
146 146 7.726908e+00 1.466432e+00 6.016047e+00 
147 147 3.108934e+00 1.553393e+00 4.355009e+00 
148 148 7.718046e-01 1.883841e+00 2.735157e+00 
149 149 2.769712e+00 6.047589e+00 4.772231e+00 
150 150 6.269127e+00 4.415200e-01 6.619236e+00 
151 151 1.724363e+00 7.830346e-01 6.511862e+00 
152 152 3.501805e-01 8.463457e-01 6.873733e+00 
153 153 1.699825e+00 7.837225e-02 2.401854e+00 
154 154 7.474503e+00 5.176505e+00 4.174116e+00 
155 155 3.808423e-01 1.031509e+00 4.532467e+00 
156 156 5.776713e-01 2.618637e+00 2.036434e+00 
157 157 1.182964e+00 8.100950e-01 1.871205e-01 
158 158 5.644441e+00 1.011889e+00 3.039236e+00 
159 159 3.011623e+00 3.698325e+00 4.869955e-01 
160 160 4.250600e-03 7.622153e+00 5.780950e+00 
161 161 1.277650e+00 4.699324e+00 3.244889e+00 
162 162 6.719491e+00 4.337369e+00 2.524814e+00 
163 163 6.162551e+00 7.358163e+00 1.548014e+00 
164 164 5.374882e+00 5.974042e+00 5.433900e+00 
165 165 6.287052e+00 2.776339e+00 2.172417e+00 
166 166 4.772047e+00 5.263644e+00 7.562546e+00 
167 167 9.237234e-02 4.619349e+00 6.651599e+00 
168 168 7.023161e+00 4.218429e+00 1.514766e+00 
169 169 2.903913e+00 7.603539e+00 3.546940e+00 
170 170 7.732426e+00 2.958505e+00 7.391635e+00 
171 171 2.587303e+00 2.426476e+00 4.372718e+00 
172 172 1.252983e+00 3.402884e+00 2.451091e+00 
173 173 6.606459e-01 8.483800e-01 1.095806e+00 
174 174 2.676776e+00 2.912125e+00 7.753289e+00 
175 175 3.315336e+00 3.874064e+00 6.493286e+00 
176 176 1.601117e+00 7.000472e+00 1.426563e+00 
177 177 3.870533e+00 5.082909e+00 6.075331e+00 
178 178 5.974697e+00 1.307411e+00 4.183967e+00 
179 179 3.276321e+00 1.880573e+00 2.493645e+00 
180 180 5.852341e+00 3.111760e+00 7.269618e+00 
181 181 7.839603e+00 3.219527e+00 4.932804e+00 
182 182 1.739691e+00 3.115524e+00 2.704171e-01 
183 183 4.661951e+00 6.679006e+00 4.716481e+00 
184 184 4.683813e+00 6.010118e+00 1.002083e+00 
185 185 5.515455e+00 3.553014e+00 5.171622e+00 
186 186 3.928871e+00 7.051780e+00 2.274044e-01 
187 187 4.794674e+00 2.874978e+00 5.827094e+00 
188 188 6.432713e+00 6.157228e+00 1.740965e+00 
189 189 5.214549e+00 5.987677e+00 2.180651e+00 
190 190 3.737695e+00 3.787069e+00 2.158085e+00 
191 191 1.251541e+00 5.046859e+00 7.346944e+00 
192 192 1.265847e+00 4.241915e+00 5.175871e+00 
193 193 7.184623e+00 3.982511e+00 7.003114e+00 
194 194 6.344949e-02 1.203341e-01 2.063680e+00 
195 195 2.793120e+00 5.602229e-01 6.720991e+00 
196 196 1.159831e+00 3.774894e-01 3.906704e+00 
197 197 3.822298e+00 1.766819e+00 1.526468e+00 
198 198 7.685480e+00 6.649039e+00 6.442723e+00 
199 199 7.094588e+00 5.528738e+00 9.204731e-01 
200 200 6.111815e+00 2.152187e+00 7.097039e+00 
201 201 9.274065e-01 3.479211e+00 4.189441e+00 
202 202 3.881440e-01 7.336285e+00 7.915247e+00 
203 203 3.976622e+00 4.757144e+00 3.201516e-01 
204 204 7.225555e+00 5.538334e+00 6.468577e+00 
205 205 7.764821e+00 6.438371e+00 3.361554e+00 
206 206 5.064892e+00 7.882212e+00 6.682647e+00 
207 207 1.811753e+00 3.763841e+00 1.081917e+00 
208 208 1.115120e-01 2.723972e+00 3.294276e+00 
209 209 1.442759e-01 7.756053e+00 1.022123e+00 
210 210 2.050441e+00 2.781549e+00 1.371312e+00 
211 211 4.397943e+00 1.842406e+00 5.194704e+00 
212 212 5.750671e+00 4.499584e+00 7.199671e+00 
213 213 5.623448e+00 3.611537e+00 2.504928e+00 
214 214 1.138124e+00 4.886052e+00 4.298655e+00 
215 215 6.118249e+00 3.532204e+00 3.379627e+00 
216 216 7.853834e+00 5.945978e+00 3.309983e-01 
217 217 7.968569e-01 2.375640e+00 5.795155e+00 
218 218 4.728155e+00 2.265294e-01 5.284750e-01 
219 219 2.064156e+00 5.295277e+00 2.252270e+00 
220 220 1.879839e+00 5.779440e+00 4.300469e+00 
221 221 6.429456e-02 5.773049e+00 7.342312e+00 
222 222 1.965320e+00 6.671297e+00 4.919703e+00 
223 223 2.812519e+00 6.446663e+00 7.462150e+00 
224 224 6.118100e-01 5.009777e-01 5.721441e+00 
225 225 6.234874e+00 5.204211e+00 2.197438e+00 
226 226 3.607647e+00 2.905899e+00 5.941843e+00 
227 227 5.161924e+00 4.844672e+00 5.100225e-01 
228 228 3.276485e+00 9.817182e-01 7.590010e+00 
229 229 3.422656e+00 4.432154e+00 5.324796e+00 
230 230 2.715330e+00 1.229936e-02 5.871819e+00 
231 231 5.425818e+00 5.456015e+00 4.233764e+00 
232 232 6.367444e+00 1.042511e+00 2.661612e-02 
233 233 4.865278e+00 1.577279e+00 3.899403e+00 
234 234 6.516369e+00 6.882238e+00 2.663471e+00 
235 235 3.693578e+00 4.269260e+00 1.201475e+00 
236 236 2.637809e+00 1.873972e+00 3.505923e+00 
237 237 4.958940e+00 2.098350e+00 7.094646e+00 
238 238 2.262165e+00 8.705923e-01 1.315544e+00 
239 239 7.365486e+00 5.075048e-01 5.654426e+00 
240 240 1.790718e+00 5.113500e-01 5.378422e+00 
241 241 7.495325e+00 2.343856e+00 1.003190e+00 
242 242 4.451266e+00 5.558452e-01 4.970258e+00 
243 243 6.197356e+00 1.462900e+00 2.301719e+00 
244 244 3.242540e+00 5.080300e+00 1.603039e+00 
245 245 7.774050e+00 7.908781e+00 4.786401e+00 
246 246 3.723888e+00 6.731035e+00 2.367650e+00 
247 247 1.917822e+00 7.352587e+00 6.303638e+00 
248 248 5.525672e+00 7.674667e+00 2.588813e+00 
249 249 1.092210e+00 3.733168e+00 7.544348e+00 
250 250 6.393453e+00 7.584833e+00 5.678855e-01 
251 251 2.656509e+00 2.228986e+00 5.221278e-01 
252 252 2.457223e+00 7.527587e+00 4.729245e+00 
253 253 1.831320e+00 6.837314e+00 2.450475e+00 
254 254 7.959824e+00 1.381148e+00 5.939451e-01 
255 255 2.395061e+00 6.628526e+00 3.713279e+00 
ITEM: TIMESTEP 
0 
ITEM: NUMBER OF ATOMS 
256 
ITEM: BOX BOUNDS 
0.000000e+00 8.000000e+00 xlo xhi 
0.000000e+00 8.000000e+00 xlo xhi 
0.000000e+00 8.000000e+00 xlo xhi 
ITEM: ATOMS id type x y z 
0 0 2.540809e+00 3.607918e+00 2.128062e+00 
1 1 2.814417e+00 5.555651e-01 5.026574e+00 
2 2 1.913903e+00 1.889432e+00 6.194753e+00 
3 3 6.153191e+00 6.895294e+00 6.223672e+00 
4 4 1.757490e+00 4.961939e+00 1.137124e+00 
5 5 2.177086e+00 4.385239e+00 7.710848e+00 
6 6 7.513715e+00 3.698059e-01 2.342887e-02 
7 7 6.249566e+00 4.849365e+00 8.918644e-01 
8 8 6.541977e+00 6.828151e+00 5.021144e+00 
9 9 4.367808e+00 4.710656e+00 1.869805e+00 
10 10 6.543030e+00 1.979699e+00 6.181195e-01 
11 11 4.110226e+00 4.084242e-01 2.052496e+00 
12 12 2.652475e+00 3.135238e+00 3.359437e+00 
13 13 1.057511e+00 4.045200e+00 6.484178e+00 
14 14 6.769187e-01 6.580024e+00 2.098836e+00 
15 15 7.700269e+00 5.179026e+00 1.919826e+00 
16 16 7.646653e-01 5.551065e+00 3.512362e+00 
17 17 2.480830e+00 5.489012e-01 3.354394e+00 
18 18 7.516697e+00 1.426691e+00 1.569345e+00 
19 19 6.991098e+00 2.668625e+00 5.242916e+00 
20 20 5.259354e-01 9.787875e-01 3.315680e+00 
21 21 5.469081e+00 7.899069e-01 7.137350e+00 
22 22 1.354824e-02 4.861145e+00 1.482815e-01 
23 23 3.814057e-01 1.121789e+00 2.027013e+00 
24 24 6.820913e+00 3.820257e+00 7.931990e+00 
25 25 5.156931e+00 5.141915e+00 6.357504e+00 
26 26 4.706209e+00 6.810957e+00 2.522012e+00 
27 27 9.027656e-01 7.831765e+00 6.415176e+00 
28 28 7.976139e+00 4.136056e+00 2.771179e+00 
29 29 2.532120e+00 3.214225e+00 5.226495e+00 
30 30 5.418980e+00 4.240234e+00 1.420130e+00 
31 31 8.619679e-01 2.351129e+00 6.810467e+00 
32 32 6.508244e+00 7.654897e+00 7.561989e+00 
33 33 6.413985e+00 3.760773e-01 5.008204e+00 
34 34 1.668377e+00 7.248781e+00 7.589476e+00 
35 35 7.666003e-01 3.516810e+00 1.211954e+00 
36 36 5.330638e+00 1.918487e+00 1.750565e+00 
37 37 7.722026e-01 6.622084e+00 4.103978e+00 
38 38 7.194849e+00 6.484914e+00 7.450245e+00 
39 39 3.952398e+00 5.955999e+00 7.384271e+00 
40 40 6.296219e+00 2.753085e+00 4.337459e+00 
41 41 8.024266e-01 2.095874e+00 4.460872e+00 
42 42 7.447463e+00 5.762687e+00 5.074563e+00 
43 43 5.821146e+00 6.406175e+00 4.572398e-01 
44 44 9.830190e-01 6.788654e+00 6.601254e-01 
45 45 2.253981e+00 5.127572e+00 5.169318e+00 
46 46 4.967237e+00 2.978508e+00 1.497265e+00 
47 47 2.615064e+00 4.752221e+00 3.136936e+00 
48 48 1.574738e+00 2.342242e+00 2.298059e+00 
49 49 9.536255e-01 5.899580e+00 6.623741e+00 
50 50 1.219716e-01 7.305217e+00 3.779600e+00 
51 51 4.521014e+00 6.768821e+00 3.595273e+00 
52 52 3.886956e+00 5.381914e-01 3.672177e+00 
53 53 1.906621e+00 7.702676e+00 3.645836e+00 
54 54 4.380542e+00 2.205467e+00 3.005961e+00 
55 55 5.918053e+00 3.461986e+00 6.222962e+00 
56 56 5.860260e+00 3.430951e-01 1.885504e+00 
57 57 6.950910e+00 5.551139e+00 3.187158e+00 
58 58 7.377394e+00 2.219984e+00 1.362271e-02 
59 59 2.628010e+00 6.796569e+00 6.013040e-01 
60 60 6.976450e+00 4.344754e+00 5.377667e+00 
61 61 3.781927e+00 3.091146e+00 4.964836e+00 
62 62 6.346085e+00 2.942236e+00 1.505354e-01 
63 63 5.717841e+00 5.487461e+00 7.323024e+00 
64 64 5.742698e+00 3.836340e-01 7.293832e-01 
65 65 3.129571e+00 3.088423e+00 1.311854e+00 
66 66 7.112877e+00 4.008636e+00 3.493992e+00 
67 67 2.840183e+00 2.402536e+00 6.608011e+00 
68 68 3.016793e+00 7.448913e+00 6.758933e+00 
69 69 5.786718e+00 6.002420e+00 3.442528e+00 
70 70 5.998732e+00 4.601326e+00 4.684648e+00 
71 71 4.131804e+00 1.518573e+00 6.932147e+00 
72 72 3.268574e+00 5.565454e+00 2.445134e-01 
73 73 3.961789e+00 9.012485e-02 7.569267e+00 
74 74 1.485866e+00 7.559613e+00 5.038433e+00 
75 75 7.129067e+00 3.232798e+00 1.278702e+00 
76 76 3.716533e+00 6.483231e+00 5.813113e+00 
77 77 1.303051e+00 2.159981e+00 6.526134e-01 
78 78 7.572608e+00 6.729359e+00 1.073446e+00 
79 79 4.576967e+00 3.561505e+00 4.490330e+00 
80 80 4.950576e+00 7.822448e+00 1.707467e+00 
81 81 3.491600e+00 6.954402e+00 4.043014e+00 
82 82 3.436876e+00 4.481559e+00 7.371958e+00 
83 83 7.551852e+00 7.860437e+00 6.723866e+00 
84 84 5.180078e+00 4.684674e-02 3.824692e+00 
85 85 7.104622e+00 1.101491e+00 4.632734e+00 
86 86 4.971034e+00 4.164868e+00 7.768455e+00 
87 87 3.613450e+00 4.173734e+00 3.691102e+00 
88 88 3.020780e+00 7.500409e+00 2.291478e+00 
89 89 7.255490e+00 3.639873e-01 1.450941e+00 
90 90 4.450532e+00 4.527905e+00 5.256766e+00 
91 91 4.391494e+00 3.639993e+00 6.415184e+00 
92 92 3.085843e+00 5.960806e+00 2.280836e+00 
93 93 2.567624e+00 4.855294e+00 6.747377e+00 
94 94 6.791157e+00 4.935934e+00 7.208866e+00 
95 95 1.219659e+00 1.389223e+00 5.055173e+00 
96 96 3.854250e+00 1.682895e+00 8.009528e-02 
97 97 7.969701e+00 3.548309e+00 3.419344e-01 
98 98 5.181500e+00 1.631178e+00 4.009628e-01 
99 99 2.536509e+00 9.467918e-01 3.085102e-01 
100 100 3.690810e+00 5.438380e+00 4.943648e+00 
101 101 3.982524e+00 2.081437e+00 4.045312e+00 
102 102 1.662310e+00 1.854949e+00 7.231955e+00 
103 103 4.359173e+00 7.203937e+00 6.126172e+00 
104 104 5.311585e+00 2.004973e+00 5.702936e+00 
105 105 2.614977e+00 5.823082e+00 6.016446e+00 
106 106 5.855562e+00 2.084539e+00 3.048288e+00 
107 107 5.001073e+00 6.731614e+00 7.145467e+00 
108 108 1.497593e+00 2.387326e+00 3.527063e+00 
109 109 3.386428e+00 2.142669e+00 5.173873e+00 
110 110 2.176033e+00 1.375837e+00 2.381380e+00 
111 111 7.978601e+00 2.990719e+00 5.917860e+00 
112 112 5.551720e-01 4.346723e+00 1.782076e+00 
113 113 7.099115e+00 7.228302e+00 3.918210e+00 