ITEM: TIMESTEP 
0 
ITEM: NUMBER OF ATOMS 
4 
ITEM: BOX BOUNDS 
0.000000e+00 2.000000e+00 xlo xhi 
0.000000e+00 2.000000e+00 xlo xhi 
0.000000e+00 2.000000e+00 xlo xhi 
ITEM: ATOMS id type x y z 
0 0 6.327931e-01 9.041049e-01 5.325870e-01 
1 1 7.049285e-01 1.356757e-01 1.253230e+00 
2 2 1.383471e+00 1.290441e+00 1.452359e+00 
3 3 1.636178e+00 4.918597e-01 1.521887e-01 
ITEM: TIMESTEP 
0 
ITEM: NUMBER OF ATOMS 
4 
ITEM: BOX BOUNDS 
0.000000e+00 2.000000e+00 xlo xhi 
0.000000e+00 2.000000e+00 xlo xhi 
0.000000e+00 2.000000e+00 xlo xhi 
ITEM: ATOMS id type x y z 
0 0 6.343575e-01 9.021086e-01 5.312582e-01 
1 1 7.047400e-01 1.363243e-01 1.253775e+00 
2 2 1.382176e+00 1.291238e+00 1.453050e+00 
3 3 1.636025e+00 4.922712e-01 1.521022e-01 
ITEM: TIMESTEP 
0 
ITEM: NUMBER OF ATOMS 
4 
ITEM: BOX BOUNDS 
0.000000e+00 2.000000e+00 xlo xhi 
0.000000e+00 2.000000e+00 xlo xhi 
0.000000e+00 2.000000e+00 xlo xhi 
ITEM: ATOMS id type x y z 
0 0 6.509506e-01 8.806600e-01 5.177980e-01 
1 1 7.042295e-01 1.422411e-01 1.259276e+00 
2 2 1.368949e+00 1.299183e+00 1.460920e+00 
3 3 1.633105e+00 4.969669e-01 1.518383e-01 
ITEM: TIMESTEP 
0 
ITEM: NUMBER OF ATOMS 
4 
ITEM: BOX BOUNDS 
0.000000e+00 2.000000e+00 xlo xhi 
0.000000e+00 2.000000e+00 xlo xhi 
0.000000e+00 2.000000e+00 xlo xhi 
ITEM: ATOMS id type x y z 
0 0 6.712703e-01 8.600811e-01 5.069004e-01 
1 1 7.052781e-01 1.493623e-01 1.263505e+00 
2 2 1.355662e+00 1.307426e+00 1.468891e+00 
3 3 1.625404e+00 5.030382e-01 1.505646e-01 
ITEM: TIMESTEP 
0 
ITEM: NUMBER OF ATOMS 
4 
ITEM: BOX BOUNDS 
0.000000e+00 2.000000e+00 xlo xhi 
0.000000e+00 2.000000e+00 xlo xhi 
0.000000e+00 2.000000e+00 xlo xhi 
ITEM: ATOMS id type x y z 
0 0 6.941716e-01 8.412619e-01 4.992161e-01 
1 1 7.096842e-01 1.553229e-01 1.265321e+00 
2 2 1.340684e+00 1.315651e+00 1.476019e+00 
3 3 1.613886e+00 5.119442e-01 1.475056e-01 
ITEM: TIMESTEP 
0 
ITEM: NUMBER OF ATOMS 
4 
ITEM: BOX BOUNDS 
0.000000e+00 2.000000e+00 xlo xhi 
0.000000e+00 2.000000e+00 xlo xhi 
0.000000e+00 2.000000e+00 xlo xhi 
ITEM: ATOMS id type x y z 
0 0 7.184304e-01 8.227082e-01 4.931700e-01 
1 1 7.161268e-01 1.616438e-01 1.265338e+00 
2 2 1.324248e+00 1.325015e+00 1.482256e+00 
3 3 1.600536e+00 5.224125e-01 1.429166e-01 
ITEM: TIMESTEP 
0 
ITEM: NUMBER OF ATOMS 
4 
ITEM: BOX BOUNDS 
0.000000e+00 2.000000e+00 xlo xhi 
0.000000e+00 2.000000e+00 xlo xhi 
0.000000e+00 2.000000e+00 xlo xhi 
ITEM: ATOMS id type x y z 
0 0 7.464092e-01 8.047970e-01 4.894453e-01 
1 1 7.259407e-01 1.662028e-01 1.265349e+00 
2 2 1.306053e+00 1.333172e+00 1.488002e+00 
3 3 1.585294e+00 5.311815e-01 1.355784e-01 
ITEM: TIMESTEP 
0 
ITEM: NUMBER OF ATOMS 
4 
ITEM: BOX BOUNDS 
0.000000e+00 2.000000e+00 xlo xhi 
0.000000e+00 2.000000e+00 xlo xhi 
0.000000e+00 2.000000e+00 xlo xhi 
ITEM: ATOMS id type x y z 
0 0 7.749297e-01 7.886381e-01 4.876535e-01 
1 1 7.365071e-01 1.699423e-01 1.268341e+00 
2 2 1.285647e+00 1.339764e+00 1.492855e+00 
3 3 1.569588e+00 5.388293e-01 1.270428e-01 
ITEM: TIMESTEP 
0 
ITEM: NUMBER OF ATOMS 
4 
ITEM: BOX BOUNDS 
0.000000e+00 2.000000e+00 xlo xhi 
0.000000e+00 2.000000e+00 xlo xhi 
0.000000e+00 2.000000e+00 xlo xhi 
ITEM: ATOMS id type x y z 
0 0 8.045630e-01 7.748528e-01 4.833560e-01 
1 1 7.480842e-01 1.745961e-01 1.272222e+00 
2 2 1.265040e+00 1.344379e+00 1.499724e+00 
3 3 1.553083e+00 5.472349e-01 1.166156e-01 
ITEM: TIMESTEP 
0 
ITEM: NUMBER OF ATOMS 
4 
ITEM: BOX BOUNDS 
0.000000e+00 2.000000e+00 xlo xhi 
0.000000e+00 2.000000e+00 xlo xhi 
0.000000e+00 2.000000e+00 xlo xhi 
ITEM: ATOMS id type x y z 
0 0 8.350624e-01 7.639002e-01 4.767682e-01 
1 1 7.588826e-01 1.810060e-01 1.278759e+00 
2 2 1.243945e+00 1.345897e+00 1.508688e+00 
3 3 1.535117e+00 5.569697e-01 1.054804e-01 
ITEM: TIMESTEP 
0 
ITEM: NUMBER OF ATOMS 
4 
ITEM: BOX BOUNDS 
0.000000e+00 2.000000e+00 xlo xhi 
0.000000e+00 2.000000e+00 xlo xhi 
0.000000e+00 2.000000e+00 xlo xhi 
ITEM: ATOMS id type x y z 
0 0 8.659592e-01 7.573112e-01 4.683424e-01 
1 1 7.691278e-01 1.865976e-01 1.286778e+00 
2 2 1.223731e+00 1.346249e+00 1.519187e+00 
3 3 1.514976e+00 5.680547e-01 9.366584e-02 
ITEM: TIMESTEP 
0 
ITEM: NUMBER OF ATOMS 
4 
ITEM: BOX BOUNDS 
0.000000e+00 2.000000e+00 xlo xhi 
0.000000e+00 2.000000e+00 xlo xhi 
0.000000e+00 2.000000e+00 xlo xhi 
ITEM: ATOMS id type x y z 
0 0 8.955031e-01 7.521355e-01 4.564834e-01 
1 1 7.807257e-01 1.924269e-01 1.295825e+00 
2 2 1.202994e+00 1.345701e+00 1.532784e+00 
3 3 1.492925e+00 5.805059e-01 8.078363e-02 
ITEM: TIMESTEP 
0 
ITEM: NUMBER OF ATOMS 
4 
ITEM: BOX BOUNDS 
0.000000e+00 2.000000e+00 xlo xhi 
0.000000e+00 2.000000e+00 xlo xhi 
0.000000e+00 2.000000e+00 xlo xhi 
ITEM: ATOMS id type x y z 
0 0 9.245451e-01 7.472725e-01 4.443820e-01 
1 1 7.938047e-01 1.997850e-01 1.306395e+00 
2 2 1.182461e+00 1.345502e+00 1.546674e+00 
3 3 1.468388e+00 5.934132e-01 6.465539e-02 
ITEM: TIMESTEP 
0 
ITEM: NUMBER OF ATOMS 
4 
ITEM: BOX BOUNDS 
0.000000e+00 2.000000e+00 xlo xhi 
0.000000e+00 2.000000e+00 xlo xhi 
0.000000e+00 2.000000e+00 xlo xhi 
ITEM: ATOMS id type x y z 
0 0 9.549923e-01 7.426770e-01 4.315105e-01 
1 1 8.090866e-01 2.092499e-01 1.316616e+00 
2 2 1.161745e+00 1.342815e+00 1.562124e+00 
3 3 1.441648e+00 6.081471e-01 4.492460e-02 
ITEM: TIMESTEP 
0 
ITEM: NUMBER OF ATOMS 
4 
ITEM: BOX BOUNDS 
0.000000e+00 2.000000e+00 xlo xhi 
0.000000e+00 2.000000e+00 xlo xhi 
0.000000e+00 2.000000e+00 xlo xhi 
ITEM: ATOMS id type x y z 
0 0 9.866656e-01 7.365116e-01 4.191051e-01 
1 1 8.253481e-01 2.208216e-01 1.325405e+00 
2 2 1.142099e+00 1.339479e+00 1.579679e+00 
3 3 1.415530e+00 6.228831e-01 2.438103e-02 
ITEM: TIMESTEP 
0 
ITEM: NUMBER OF ATOMS 
4 
ITEM: BOX BOUNDS 
0.000000e+00 2.000000e+00 xlo xhi 
0.000000e+00 2.000000e+00 xlo xhi 
0.000000e+00 2.000000e+00 xlo xhi 
ITEM: ATOMS id type x y z 
0 0 1.018081e+00 7.304585e-01 4.077639e-01 
1 1 8.419487e-01 2.326258e-01 1.330582e+00 
2 2 1.122031e+00 1.336139e+00 1.599734e+00 
3 3 1.391541e+00 6.365438e-01 5.233402e-03 
ITEM: TIMESTEP 
0 
ITEM: NUMBER OF ATOMS 
4 
ITEM: BOX BOUNDS 
0.000000e+00 2.000000e+00 xlo xhi 
0.000000e+00 2.000000e+00 xlo xhi 
0.000000e+00 2.000000e+00 xlo xhi 
ITEM: ATOMS id type x y z 
0 0 1.049054e+00 7.234127e-01 3.982853e-01 
1 1 8.586978e-01 2.433841e-01 1.333020e+00 
2 2 1.100090e+00 1.332847e+00 1.621058e+00 
3 3 1.365411e+00 6.506673e-01 1.985912e+00 
ITEM: TIMESTEP 
0 
ITEM: NUMBER OF ATOMS 
4 
ITEM: BOX BOUNDS 
0.000000e+00 2.000000e+00 xlo xhi 
0.000000e+00 2.000000e+00 xlo xhi 
0.000000e+00 2.000000e+00 xlo xhi 
ITEM: ATOMS id type x y z 
0 0 1.078428e+00 7.154893e-01 3.922589e-01 
1 1 8.755406e-01 2.548350e-01 1.331637e+00 
2 2 1.080175e+00 1.329894e+00 1.642444e+00 
3 3 1.338170e+00 6.646463e-01 1.967272e+00 
ITEM: TIMESTEP 
0 
ITEM: NUMBER OF ATOMS 
4 
ITEM: BOX BOUNDS 
0.000000e+00 2.000000e+00 xlo xhi 
0.000000e+00 2.000000e+00 xlo xhi 
0.000000e+00 2.000000e+00 xlo xhi 
ITEM: ATOMS id type x y z 
0 0 1.106917e+00 7.065041e-01 3.880551e-01 
1 1 8.930547e-01 2.692110e-01 1.328326e+00 
2 2 1.062136e+00 1.326511e+00 1.662515e+00 
3 3 1.312835e+00 6.779476e-01 1.948478e+00 
ITEM: TIMESTEP 
0 
ITEM: NUMBER OF ATOMS 
4 
ITEM: BOX BOUNDS 
0.000000e+00 2.000000e+00 xlo xhi 
0.000000e+00 2.000000e+00 xlo xhi 
0.000000e+00 2.000000e+00 xlo xhi 
ITEM: ATOMS id type x y z 
0 0 1.133799e+00 6.968213e-01 3.865152e-01 
1 1 9.090139e-01 2.838504e-01 1.323889e+00 
2 2 1.043607e+00 1.321769e+00 1.683719e+00 
3 3 1.289820e+00 6.894212e-01 1.929177e+00 
ITEM: TIMESTEP 
0 
ITEM: NUMBER OF ATOMS 
4 
ITEM: BOX BOUNDS 
0.000000e+00 2.000000e+00 xlo xhi 
0.000000e+00 2.000000e+00 xlo xhi 
0.000000e+00 2.000000e+00 xlo xhi 
ITEM: ATOMS id type x y z 
0 0 1.159569e+00 6.873038e-01 3.858532e-01 
1 1 9.274388e-01 2.980557e-01 1.319037e+00 
2 2 1.023417e+00 1.319543e+00 1.704677e+00 
3 3 1.267940e+00 7.024753e-01 1.908571e+00 
ITEM: TIMESTEP 
0 
ITEM: NUMBER OF ATOMS 
4 
ITEM: BOX BOUNDS 
0.000000e+00 2.000000e+00 xlo xhi 
0.000000e+00 2.000000e+00 xlo xhi 
0.000000e+00 2.000000e+00 xlo xhi 
ITEM: ATOMS id type x y z 
0 0 1.183082e+00 6.766430e-01 3.869153e-01 
1 1 9.486428e-01 3.118408e-01 1.312774e+00 
2 2 1.003004e+00 1.320625e+00 1.724636e+00 
3 3 1.246703e+00 7.147277e-01 1.886856e+00 
ITEM: TIMESTEP 
0 
ITEM: NUMBER OF ATOMS 
4 
ITEM: BOX BOUNDS 
0.000000e+00 2.000000e+00 xlo xhi 
0.000000e+00 2.000000e+00 xlo xhi 
0.000000e+00 2.000000e+00 xlo xhi 
ITEM: ATOMS id type x y z 
0 0 1.205812e+00 6.655220e-01 3.885565e-01 
1 1 9.702629e-01 3.256501e-01 1.305219e+00 
2 2 9.841481e-01 1.323290e+00 1.744391e+00 
3 3 1.224434e+00 7.272570e-01 1.863390e+00 
ITEM: TIMESTEP 
0 
ITEM: NUMBER OF ATOMS 
4 
ITEM: BOX BOUNDS 
0.000000e+00 2.000000e+00 xlo xhi 
0.000000e+00 2.000000e+00 xlo xhi 
0.000000e+00 2.000000e+00 xlo xhi 
ITEM: ATOMS id type x y z 
0 0 1.229932e+00 6.554727e-01 3.896694e-01 
1 1 9.923437e-01 3.392027e-01 1.299964e+00 
2 2 9.664511e-01 1.326094e+00 1.762131e+00 
3 3 1.200244e+00 7.407312e-01 1.841015e+00 
ITEM: TIMESTEP 
0 
ITEM: NUMBER OF ATOMS 
4 
ITEM: BOX BOUNDS 
0.000000e+00 2.000000e+00 xlo xhi 
0.000000e+00 2.000000e+00 xlo xhi 
0.000000e+00 2.000000e+00 xlo xhi 
ITEM: ATOMS id type x y z 
0 0 1.254689e+00 6.454553e-01 3.897260e-01 
1 1 1.014186e+00 3.556019e-01 1.296170e+00 
2 2 9.486549e-01 1.325010e+00 1.778701e+00 
3 3 1.177363e+00 7.552473e-01 1.818197e+00 
ITEM: TIMESTEP 
0 
ITEM: NUMBER OF ATOMS 
4 
ITEM: BOX BOUNDS 
0.000000e+00 2.000000e+00 xlo xhi 
0.000000e+00 2.000000e+00 xlo xhi 
0.000000e+00 2.000000e+00 xlo xhi 
ITEM: ATOMS id type x y z 
0 0 1.279251e+00 6.355572e-01 3.893984e-01 
1 1 1.036185e+00 3.732849e-01 1.292943e+00 
2 2 9.326922e-01 1.321855e+00 1.794807e+00 
3 3 1.154981e+00 7.681079e-01 1.795670e+00 
ITEM: TIMESTEP 
0 
ITEM: NUMBER OF ATOMS 
4 
ITEM: BOX BOUNDS 
0.000000e+00 2.000000e+00 xlo xhi 
0.000000e+00 2.000000e+00 xlo xhi 
0.000000e+00 2.000000e+00 xlo xhi 
ITEM: ATOMS id type x y z 
0 0 1.303670e+00 6.264059e-01 3.898605e-01 
1 1 1.057046e+00 3.908793e-01 1.289864e+00 
2 2 9.173026e-01 1.316783e+00 1.807648e+00 
3 3 1.132469e+00 7.822750e-01 1.773347e+00 
ITEM: TIMESTEP 
0 
ITEM: NUMBER OF ATOMS 
4 
ITEM: BOX BOUNDS 
0.000000e+00 2.000000e+00 xlo xhi 
0.000000e+00 2.000000e+00 xlo xhi 
0.000000e+00 2.000000e+00 xlo xhi 
ITEM: ATOMS id type x y z 
0 0 1.326405e+00 6.176884e-01 3.908224e-01 
1 1 1.076341e+00 4.087257e-01 1.285613e+00 
2 2 9.040119e-01 1.311734e+00 1.817301e+00 
3 3 1.110753e+00 7.976400e-01 1.751922e+00 
ITEM: TIMESTEP 
0 
ITEM: NUMBER OF ATOMS 
4 
ITEM: BOX BOUNDS 
0.000000e+00 2.000000e+00 xlo xhi 
0.000000e+00 2.000000e+00 xlo xhi 
0.000000e+00 2.000000e+00 xlo xhi 
ITEM: ATOMS id type x y z 
0 0 1.347450e+00 6.064437e-01 3.902235e-01 
1 1 1.094560e+00 4.274360e-01 1.283784e+00 
2 2 8.898573e-01 1.303887e+00 1.825350e+00 
3 3 1.087513e+00 8.131401e-01 1.730409e+00 
ITEM: TIMESTEP 
0 
ITEM: NUMBER OF ATOMS 
4 
ITEM: BOX BOUNDS 
0.000000e+00 2.000000e+00 xlo xhi 
0.000000e+00 2.000000e+00 xlo xhi 
0.000000e+00 2.000000e+00 xlo xhi 
ITEM: ATOMS id type x y z 
0 0 1.369498e+00 5.941846e-01 3.892453e-01 
1 1 1.113092e+00 4.474927e-01 1.282892e+00 
2 2 8.760947e-01 1.294147e+00 1.829893e+00 
3 3 1.062811e+00 8.280948e-01 1.708088e+00 
ITEM: TIMESTEP 
0 
ITEM: NUMBER OF ATOMS 
4 
ITEM: BOX BOUNDS 
0.000000e+00 2.000000e+00 xlo xhi 
0.000000e+00 2.000000e+00 xlo xhi 
0.000000e+00 2.000000e+00 xlo xhi 
ITEM: ATOMS id type x y z 
0 0 1.389259e+00 5.836963e-01 3.877075e-01 
1 1 1.130697e+00 4.697304e-01 1.283351e+00 
2 2 8.633882e-01 1.280979e+00 1.833666e+00 
3 3 1.037771e+00 8.414542e-01 1.688175e+00 
ITEM: TIMESTEP 
0 
ITEM: NUMBER OF ATOMS 
4 
ITEM: BOX BOUNDS 
0.000000e+00 2.000000e+00 xlo xhi 
0.000000e+00 2.000000e+00 xlo xhi 
0.000000e+00 2.000000e+00 xlo xhi 
ITEM: ATOMS id type x y z 
0 0 1.407867e+00 5.740540e-01 3.844366e-01 
1 1 1.146377e+00 4.942221e-01 1.284383e+00 
2 2 8.537622e-01 1.266114e+00 1.837088e+00 
3 3 1.012847e+00 8.540411e-01 1.669343e+00 
ITEM: TIMESTEP 
0 
ITEM: NUMBER OF ATOMS 
4 
ITEM: BOX BOUNDS 
0.000000e+00 2.000000e+00 xlo xhi 
0.000000e+00 2.000000e+00 xlo xhi 
0.000000e+00 2.000000e+00 xlo xhi 
ITEM: ATOMS id type x y z 
0 0 1.425029e+00 5.681966e-01 3.804065e-01 
1 1 1.162404e+00 5.181139e-01 1.286550e+00 
2 2 8.427279e-01 1.251381e+00 1.841359e+00 
3 3 9.884468e-01 8.671116e-01 1.649954e+00 
ITEM: TIMESTEP 
0 
ITEM: NUMBER OF ATOMS 
4 
ITEM: BOX BOUNDS 
0.000000e+00 2.000000e+00 xlo xhi 
0.000000e+00 2.000000e+00 xlo xhi 
0.000000e+00 2.000000e+00 xlo xhi 
ITEM: ATOMS id type x y z 
0 0 1.440059e+00 5.621257e-01 3.738215e-01 
1 1 1.178196e+00 5.417800e-01 1.288823e+00 
2 2 8.322170e-01 1.235653e+00 1.846324e+00 
3 3 9.631516e-01 8.793459e-01 1.631324e+00 
ITEM: TIMESTEP 
0 
ITEM: NUMBER OF ATOMS 
4 
ITEM: BOX BOUNDS 
0.000000e+00 2.000000e+00 xlo xhi 
0.000000e+00 2.000000e+00 xlo xhi 
0.000000e+00 2.000000e+00 xlo xhi 
ITEM: ATOMS id type x y z 
0 0 1.452459e+00 5.576517e-01 3.663579e-01 
1 1 1.192925e+00 5.662321e-01 1.291036e+00 
2 2 8.210460e-01 1.217528e+00 1.852173e+00 
3 3 9.382097e-01 8.898178e-01 1.611804e+00 
ITEM: TIMESTEP 
0 
ITEM: NUMBER OF ATOMS 
4 
ITEM: BOX BOUNDS 
0.000000e+00 2.000000e+00 xlo xhi 
0.000000e+00 2.000000e+00 xlo xhi 
0.000000e+00 2.000000e+00 xlo xhi 
ITEM: ATOMS id type x y z 
0 0 1.462047e+00 5.531331e-01 3.584581e-01 
1 1 1.207190e+00 5.907679e-01 1.292602e+00 
2 2 8.100861e-01 1.196955e+00 1.857912e+00 
3 3 9.138728e-01 8.995209e-01 1.592915e+00 
ITEM: TIMESTEP 
0 
ITEM: NUMBER OF ATOMS 
4 
ITEM: BOX BOUNDS 
0.000000e+00 2.000000e+00 xlo xhi 
0.000000e+00 2.000000e+00 xlo xhi 
0.000000e+00 2.000000e+00 xlo xhi 
ITEM: ATOMS id type x y z 
0 0 1.470177e+00 5.506523e-01 3.479339e-01 
1 1 1.220771e+00 6.148309e-01 1.294432e+00 
2 2 8.012894e-01 1.175153e+00 1.861550e+00 
3 3 8.893243e-01 9.079917e-01 1.576155e+00 
ITEM: TIMESTEP 
0 
ITEM: NUMBER OF ATOMS 
4 
ITEM: BOX BOUNDS 
0.000000e+00 2.000000e+00 xlo xhi 
0.000000e+00 2.000000e+00 xlo xhi 
0.000000e+00 2.000000e+00 xlo xhi 
ITEM: ATOMS id type x y z 
0 0 1.475968e+00 5.518348e-01 3.355182e-01 
1 1 1.234622e+00 6.400310e-01 1.297972e+00 
2 2 7.957902e-01 1.153978e+00 1.862946e+00 
3 3 8.665580e-01 9.162325e-01 1.560500e+00 
ITEM: TIMESTEP 
0 
ITEM: NUMBER OF ATOMS 
4 
ITEM: BOX BOUNDS 
0.000000e+00 2.000000e+00 xlo xhi 
0.000000e+00 2.000000e+00 xlo xhi 
0.000000e+00 2.000000e+00 xlo xhi 
ITEM: ATOMS id type x y z 
0 0 1.479828e+00 5.557547e-01 3.221985e-01 
1 1 1.247285e+00 6.660308e-01 1.301802e+00 
2 2 7.910743e-01 1.132575e+00 1.864358e+00 
3 3 8.466381e-01 9.232416e-01 1.545070e+00 
ITEM: TIMESTEP 
0 
ITEM: NUMBER OF ATOMS 
4 
ITEM: BOX BOUNDS 
0.000000e+00 2.000000e+00 xlo xhi 
0.000000e+00 2.000000e+00 xlo xhi 
0.000000e+00 2.000000e+00 xlo xhi 
ITEM: ATOMS id type x y z 
0 0 1.482290e+00 5.611362e-01 3.073777e-01 
1 1 1.260830e+00 6.916481e-01 1.302025e+00 
2 2 7.843064e-01 1.112207e+00 1.866773e+00 
3 3 8.286826e-01 9.293816e-01 1.532218e+00 
ITEM: TIMESTEP 
0 
ITEM: NUMBER OF ATOMS 
4 
ITEM: BOX BOUNDS 
0.000000e+00 2.000000e+00 xlo xhi 
0.000000e+00 2.000000e+00 xlo xhi 
0.000000e+00 2.000000e+00 xlo xhi 
ITEM: ATOMS id type x y z 
0 0 1.484564e+00 5.675194e-01 2.918331e-01 
1 1 1.274191e+00 7.164806e-01 1.300167e+00 
2 2 7.769718e-01 1.093235e+00 1.870290e+00 
3 3 8.093309e-01 9.321274e-01 1.519329e+00 
ITEM: TIMESTEP 
0 
ITEM: NUMBER OF ATOMS 
4 
ITEM: BOX BOUNDS 
0.000000e+00 2.000000e+00 xlo xhi 
0.000000e+00 2.000000e+00 xlo xhi 
0.000000e+00 2.000000e+00 xlo xhi 
ITEM: ATOMS id type x y z 
0 0 1.485887e+00 5.733349e-01 2.743416e-01 
1 1 1.288367e+00 7.403810e-01 1.301014e+00 
2 2 7.696795e-01 1.076063e+00 1.873816e+00 
3 3 7.902327e-01 9.350129e-01 1.506699e+00 
ITEM: TIMESTEP 
0 
ITEM: NUMBER OF ATOMS 
4 
ITEM: BOX BOUNDS 
0.000000e+00 2.000000e+00 xlo xhi 
0.000000e+00 2.000000e+00 xlo xhi 
0.000000e+00 2.000000e+00 xlo xhi 
ITEM: ATOMS id type x y z 
0 0 1.484139e+00 5.794637e-01 2.547797e-01 
1 1 1.304035e+00 7.645026e-01 1.303133e+00 
2 2 7.590759e-01 1.059863e+00 1.876372e+00 
3 3 7.745508e-01 9.368904e-01 1.498423e+00 
ITEM: TIMESTEP 
0 
ITEM: NUMBER OF ATOMS 
4 
ITEM: BOX BOUNDS 
0.000000e+00 2.000000e+00 xlo xhi 
0.000000e+00 2.000000e+00 xlo xhi 
0.000000e+00 2.000000e+00 xlo xhi 
ITEM: ATOMS id type x y z 
0 0 1.479329e+00 5.859568e-01 2.338966e-01 
1 1 1.319320e+00 7.872827e-01 1.304663e+00 
2 2 7.487371e-01 1.042602e+00 1.876705e+00 
3 3 7.605445e-01 9.361900e-01 1.493036e+00 
ITEM: TIMESTEP 
0 
ITEM: NUMBER OF ATOMS 
4 
ITEM: BOX BOUNDS 
0.000000e+00 2.000000e+00 xlo xhi 
0.000000e+00 2.000000e+00 xlo xhi 
0.000000e+00 2.000000e+00 xlo xhi 
ITEM: ATOMS id type x y z 
0 0 1.472424e+00 5.940210e-01 2.117596e-01 
1 1 1.335757e+00 8.085335e-01 1.306823e+00 
2 2 7.383704e-01 1.025927e+00 1.876071e+00 
3 3 7.464787e-01 9.346589e-01 1.489263e+00 
ITEM: TIMESTEP 
0 
ITEM: NUMBER OF ATOMS 
4 
ITEM: BOX BOUNDS 
0.000000e+00 2.000000e+00 xlo xhi 
0.000000e+00 2.000000e+00 xlo xhi 
0.000000e+00 2.000000e+00 xlo xhi 
ITEM: ATOMS id type x y z 
0 0 1.463996e+00 6.048051e-01 1.896402e-01 
1 1 1.352896e+00 8.308982e-01 1.307546e+00 
2 2 7.280613e-01 1.012689e+00 1.875032e+00 
3 3 7.329634e-01 9.315118e-01 1.486594e+00 
ITEM: TIMESTEP 
0 
ITEM: NUMBER OF ATOMS 
4 
ITEM: BOX BOUNDS 
0.000000e+00 2.000000e+00 xlo xhi 
0.000000e+00 2.000000e+00 xlo xhi 
0.000000e+00 2.000000e+00 xlo xhi 
ITEM: ATOMS id type x y z 
0 0 1.454721e+00 6.164802e-01 1.669494e-01 
1 1 1.369409e+00 8.526063e-01 1.306665e+00 
2 2 7.173257e-01 1.000470e+00 1.874270e+00 
3 3 7.203222e-01 9.263667e-01 1.485087e+00 
ITEM: TIMESTEP 
0 
ITEM: NUMBER OF ATOMS 
4 
ITEM: BOX BOUNDS 
0.000000e+00 2.000000e+00 xlo xhi 
0.000000e+00 2.000000e+00 xlo xhi 
0.000000e+00 2.000000e+00 xlo xhi 
ITEM: ATOMS id type x y z 
0 0 1.442080e+00 6.270571e-01 1.426829e-01 
1 1 1.387837e+00 8.733169e-01 1.304314e+00 
2 2 7.052182e-01 9.875757e-01 1.874163e+00 
3 3 7.097562e-01 9.201569e-01 1.484414e+00 
ITEM: TIMESTEP 
0 
ITEM: NUMBER OF ATOMS 
4 
ITEM: BOX BOUNDS 
0.000000e+00 2.000000e+00 xlo xhi 
0.000000e+00 2.000000e+00 xlo xhi 
0.000000e+00 2.000000e+00 xlo xhi 
ITEM: ATOMS id type x y z 
0 0 1.428900e+00 6.370150e-01 1.168817e-01 
1 1 1.407917e+00 8.930786e-01 1.301905e+00 
2 2 6.920138e-01 9.756170e-01 1.876697e+00 
3 3 7.014538e-01 9.135099e-01 1.484634e+00 
ITEM: TIMESTEP 
0 
ITEM: NUMBER OF ATOMS 
4 
ITEM: BOX BOUNDS 
0.000000e+00 2.000000e+00 xlo xhi 
0.000000e+00 2.000000e+00 xlo xhi 
0.000000e+00 2.000000e+00 xlo xhi 
ITEM: ATOMS id type x y z 
0 0 1.415463e+00 6.471205e-01 9.032814e-02 
1 1 1.428072e+00 9.110342e-01 1.299064e+00 
2 2 6.796650e-01 9.633909e-01 1.879366e+00 
3 3 6.939617e-01 9.078403e-01 1.483589e+00 
ITEM: TIMESTEP 
0 
ITEM: NUMBER OF ATOMS 
4 
ITEM: BOX BOUNDS 
0.000000e+00 2.000000e+00 xlo xhi 
0.000000e+00 2.000000e+00 xlo xhi 
0.000000e+00 2.000000e+00 xlo xhi 
ITEM: ATOMS id type x y z 
0 0 1.399812e+00 6.569229e-01 6.355068e-02 
1 1 1.446426e+00 9.274230e-01 1.294518e+00 
2 2 6.674508e-01 9.499005e-01 1.880445e+00 
3 3 6.881922e-01 9.045786e-01 1.480830e+00 
ITEM: TIMESTEP 
0 
ITEM: NUMBER OF ATOMS 
4 
ITEM: BOX BOUNDS 
0.000000e+00 2.000000e+00 xlo xhi 
0.000000e+00 2.000000e+00 xlo xhi 
0.000000e+00 2.000000e+00 xlo xhi 
ITEM: ATOMS id type x y z 
0 0 1.383991e+00 6.657341e-01 3.740551e-02 
1 1 1.464793e+00 9.414831e-01 1.288709e+00 
2 2 6.564268e-01 9.363040e-01 1.880788e+00 
3 3 6.822385e-01 9.026217e-01 1.478219e+00 
ITEM: TIMESTEP 
0 
ITEM: NUMBER OF ATOMS 
4 
ITEM: BOX BOUNDS 
0.000000e+00 2.000000e+00 xlo xhi 
0.000000e+00 2.000000e+00 xlo xhi 
0.000000e+00 2.000000e+00 xlo xhi 
ITEM: ATOMS id type x y z 
0 0 1.367775e+00 6.769117e-01 1.295199e-02 
1 1 1.484230e+00 9.531610e-01 1.283993e+00 
2 2 6.457714e-01 9.244659e-01 1.880408e+00 
3 3 6.775056e-01 9.007971e-01 1.476779e+00 
ITEM: TIMESTEP 
0 
ITEM: NUMBER OF ATOMS 
4 
ITEM: BOX BOUNDS 
0.000000e+00 2.000000e+00 xlo xhi 
0.000000e+00 2.000000e+00 xlo xhi 
0.000000e+00 2.000000e+00 xlo xhi 
ITEM: ATOMS id type x y z 
0 0 1.350151e+00 6.903880e-01 1.987072e+00 
1 1 1.502863e+00 9.632287e-01 1.279674e+00 
2 2 6.348610e-01 9.152604e-01 1.877691e+00 
3 3 6.724941e-01 8.968006e-01 1.474221e+00 
ITEM: TIMESTEP 
0 
ITEM: NUMBER OF ATOMS 
4 
ITEM: BOX BOUNDS 
0.000000e+00 2.000000e+00 xlo xhi 
0.000000e+00 2.000000e+00 xlo xhi 
0.000000e+00 2.000000e+00 xlo xhi 
ITEM: ATOMS id type x y z 
0 0 1.332140e+00 7.043102e-01 1.960737e+00 
1 1 1.520387e+00 9.724632e-01 1.276175e+00 
2 2 6.253126e-01 9.062344e-01 1.874349e+00 
3 3 6.675312e-01 8.942560e-01 1.468999e+00 
ITEM: TIMESTEP 
0 
ITEM: NUMBER OF ATOMS 
4 
ITEM: BOX BOUNDS 
0.000000e+00 2.000000e+00 xlo xhi 
0.000000e+00 2.000000e+00 xlo xhi 
0.000000e+00 2.000000e+00 xlo xhi 
ITEM: ATOMS id type x y z 
0 0 1.314443e+00 7.172207e-01 1.934270e+00 
1 1 1.535452e+00 9.818713e-01 1.274201e+00 
2 2 6.176088e-01 8.974172e-01 1.872038e+00 
3 3 6.630086e-01 8.919698e-01 1.461416e+00 
ITEM: TIMESTEP 
0 
ITEM: NUMBER OF ATOMS 
4 
ITEM: BOX BOUNDS 
0.000000e+00 2.000000e+00 xlo xhi 
0.000000e+00 2.000000e+00 xlo xhi 
0.000000e+00 2.000000e+00 xlo xhi 
ITEM: ATOMS id type x y z 
0 0 1.296803e+00 7.298677e-01 1.909309e+00 
1 1 1.548179e+00 9.919703e-01 1.273539e+00 
2 2 6.093013e-01 8.874238e-01 1.867247e+00 
3 3 6.594086e-01 8.898139e-01 1.452209e+00 
ITEM: TIMESTEP 
0 
ITEM: NUMBER OF ATOMS 
4 
ITEM: BOX BOUNDS 
0.000000e+00 2.000000e+00 xlo xhi 
0.000000e+00 2.000000e+00 xlo xhi 
0.000000e+00 2.000000e+00 xlo xhi 
ITEM: ATOMS id type x y z 
0 0 1.278691e+00 7.423505e-01 1.887106e+00 
1 1 1.558270e+00 1.003828e+00 1.274122e+00 
2 2 6.017226e-01 8.769604e-01 1.862701e+00 
3 3 6.556273e-01 8.864633e-01 1.440715e+00 
ITEM: TIMESTEP 
0 
ITEM: NUMBER OF ATOMS 
4 
ITEM: BOX BOUNDS 
0.000000e+00 2.000000e+00 xlo xhi 
0.000000e+00 2.000000e+00 xlo xhi 
0.000000e+00 2.000000e+00 xlo xhi 
ITEM: ATOMS id type x y z 
0 0 1.259026e+00 7.555728e-01 1.866136e+00 
1 1 1.566618e+00 1.016103e+00 1.275016e+00 
2 2 5.970689e-01 8.649570e-01 1.857218e+00 
3 3 6.491607e-01 8.822193e-01 1.429472e+00 
ITEM: TIMESTEP 
0 
ITEM: NUMBER OF ATOMS 
4 
ITEM: BOX BOUNDS 
0.000000e+00 2.000000e+00 xlo xhi 
0.000000e+00 2.000000e+00 xlo xhi 
0.000000e+00 2.000000e+00 xlo xhi 
ITEM: ATOMS id type x y z 
0 0 1.239812e+00 7.700025e-01 1.845253e+00 
1 1 1.574891e+00 1.025356e+00 1.277244e+00 
2 2 5.943434e-01 8.518485e-01 1.848572e+00 
3 3 6.427580e-01 8.774349e-01 1.417919e+00 
ITEM: TIMESTEP 
0 
ITEM: NUMBER OF ATOMS 
4 
ITEM: BOX BOUNDS 
0.000000e+00 2.000000e+00 xlo xhi 
0.000000e+00 2.000000e+00 xlo xhi 
0.000000e+00 2.000000e+00 xlo xhi 
ITEM: ATOMS id type x y z 
0 0 1.221624e+00 7.864101e-01 1.824338e+00 
1 1 1.583598e+00 1.033896e+00 1.282185e+00 
2 2 5.919238e-01 8.386451e-01 1.839576e+00 
3 3 6.375884e-01 8.738065e-01 1.407862e+00 
ITEM: TIMESTEP 
0 
ITEM: NUMBER OF ATOMS 
4 
ITEM: BOX BOUNDS 
0.000000e+00 2.000000e+00 xlo xhi 
0.000000e+00 2.000000e+00 xlo xhi 
0.000000e+00 2.000000e+00 xlo xhi 
ITEM: ATOMS id type x y z 
0 0 1.205138e+00 8.038244e-01 1.804382e+00 
1 1 1.591702e+00 1.044785e+00 1.289185e+00 
2 2 5.896602e-01 8.257620e-01 1.829925e+00 
3 3 6.312705e-01 8.703526e-01 1.398230e+00 
ITEM: TIMESTEP 
0 
ITEM: NUMBER OF ATOMS 
4 
ITEM: BOX BOUNDS 
0.000000e+00 2.000000e+00 xlo xhi 
0.000000e+00 2.000000e+00 xlo xhi 
0.000000e+00 2.000000e+00 xlo xhi 
ITEM: ATOMS id type x y z 
0 0 1.190361e+00 8.194423e-01 1.783607e+00 
1 1 1.598388e+00 1.055068e+00 1.298245e+00 
2 2 5.874045e-01 8.128106e-01 1.820243e+00 
3 3 6.248035e-01 8.673100e-01 1.387020e+00 
ITEM: TIMESTEP 
0 
ITEM: NUMBER OF ATOMS 
4 
ITEM: BOX BOUNDS 
0.000000e+00 2.000000e+00 xlo xhi 
0.000000e+00 2.000000e+00 xlo xhi 
0.000000e+00 2.000000e+00 xlo xhi 
ITEM: ATOMS id type x y z 
0 0 1.176545e+00 8.334973e-01 1.762097e+00 
1 1 1.608317e+00 1.065145e+00 1.308356e+00 
2 2 5.835928e-01 8.009919e-01 1.811263e+00 
3 3 6.177868e-01 8.631536e-01 1.376400e+00 
ITEM: TIMESTEP 
0 
ITEM: NUMBER OF ATOMS 
4 
ITEM: BOX BOUNDS 
0.000000e+00 2.000000e+00 xlo xhi 
0.000000e+00 2.000000e+00 xlo xhi 
0.000000e+00 2.000000e+00 xlo xhi 
ITEM: ATOMS id type x y z 
0 0 1.161962e+00 8.464640e-01 1.740855e+00 
1 1 1.620404e+00 1.073154e+00 1.317959e+00 
2 2 5.779513e-01 7.910563e-01 1.801952e+00 
3 3 6.119576e-01 8.586935e-01 1.366417e+00 
ITEM: TIMESTEP 
0 
ITEM: NUMBER OF ATOMS 
4 
ITEM: BOX BOUNDS 
0.000000e+00 2.000000e+00 xlo xhi 
0.000000e+00 2.000000e+00 xlo xhi 
0.000000e+00 2.000000e+00 xlo xhi 
ITEM: ATOMS id type x y z 
0 0 1.148018e+00 8.587925e-01 1.719369e+00 
1 1 1.634899e+00 1.080549e+00 1.326950e+00 
2 2 5.704893e-01 7.822987e-01 1.791841e+00 
3 3 6.066899e-01 8.529405e-01 1.355384e+00 
ITEM: TIMESTEP 
0 
ITEM: NUMBER OF ATOMS 
4 
ITEM: BOX BOUNDS 
0.000000e+00 2.000000e+00 xlo xhi 
0.000000e+00 2.000000e+00 xlo xhi 
0.000000e+00 2.000000e+00 xlo xhi 
ITEM: ATOMS id type x y z 
0 0 1.135722e+00 8.722620e-01 1.696919e+00 
1 1 1.649673e+00 1.089670e+00 1.336175e+00 
2 2 5.605240e-01 7.734674e-01 1.780138e+00 
3 3 6.034296e-01 8.474716e-01 1.343646e+00 
ITEM: TIMESTEP 
0 
ITEM: NUMBER OF ATOMS 
4 
ITEM: BOX BOUNDS 
0.000000e+00 2.000000e+00 xlo xhi 
0.000000e+00 2.000000e+00 xlo xhi 
0.000000e+00 2.000000e+00 xlo xhi 
ITEM: ATOMS id type x y z 
0 0 1.124144e+00 8.856227e-01 1.675440e+00 
1 1 1.665707e+00 1.098406e+00 1.344487e+00 
2 2 5.489792e-01 7.649487e-01 1.769148e+00 
3 3 6.027339e-01 8.432115e-01 1.332510e+00 
ITEM: TIMESTEP 
0 
ITEM: NUMBER OF ATOMS 
4 
ITEM: BOX BOUNDS 
0.000000e+00 2.000000e+00 xlo xhi 
0.000000e+00 2.000000e+00 xlo xhi 
0.000000e+00 2.000000e+00 xlo xhi 
ITEM: ATOMS id type x y z 
0 0 1.113101e+00 8.982727e-01 1.654061e+00 
1 1 1.680576e+00 1.105738e+00 1.352107e+00 
2 2 5.351779e-01 7.562239e-01 1.757235e+00 
3 3 6.031126e-01 8.399973e-01 1.321724e+00 
ITEM: TIMESTEP 
0 
ITEM: NUMBER OF ATOMS 
4 
ITEM: BOX BOUNDS 
0.000000e+00 2.000000e+00 xlo xhi 
0.000000e+00 2.000000e+00 xlo xhi 
0.000000e+00 2.000000e+00 xlo xhi 
ITEM: ATOMS id type x y z 
0 0 1.101458e+00 9.103750e-01 1.633630e+00 
1 1 1.694333e+00 1.112002e+00 1.359051e+00 
2 2 5.213824e-01 7.461470e-01 1.746933e+00 
3 3 6.029982e-01 8.377047e-01 1.311125e+00 
ITEM: TIMESTEP 
0 
ITEM: NUMBER OF ATOMS 
4 
ITEM: BOX BOUNDS 
0.000000e+00 2.000000e+00 xlo xhi 
0.000000e+00 2.000000e+00 xlo xhi 
0.000000e+00 2.000000e+00 xlo xhi 
ITEM: ATOMS id type x y z 
0 0 1.089992e+00 9.223379e-01 1.614038e+00 
1 1 1.706724e+00 1.117466e+00 1.365833e+00 
2 2 5.085255e-01 7.377972e-01 1.737480e+00 
3 3 6.017217e-01 8.373968e-01 1.299956e+00 
ITEM: TIMESTEP 
0 
ITEM: NUMBER OF ATOMS 
4 
ITEM: BOX BOUNDS 
0.000000e+00 2.000000e+00 xlo xhi 
0.000000e+00 2.000000e+00 xlo xhi 
0.000000e+00 2.000000e+00 xlo xhi 
ITEM: ATOMS id type x y z 
0 0 1.078209e+00 9.357029e-01 1.596141e+00 
1 1 1.718098e+00 1.122265e+00 1.371392e+00 
2 2 4.958623e-01 7.297715e-01 1.727496e+00 
3 3 5.992330e-01 8.378965e-01 1.289448e+00 
ITEM: TIMESTEP 
0 
ITEM: NUMBER OF ATOMS 
4 
ITEM: BOX BOUNDS 
0.000000e+00 2.000000e+00 xlo xhi 
0.000000e+00 2.000000e+00 xlo xhi 
0.000000e+00 2.000000e+00 xlo xhi 
ITEM: ATOMS id type x y z 
0 0 1.065369e+00 9.497768e-01 1.579936e+00 
1 1 1.727339e+00 1.125151e+00 1.374331e+00 
2 2 4.828582e-01 7.228486e-01 1.716778e+00 
3 3 5.963064e-01 8.377512e-01 1.279281e+00 
ITEM: TIMESTEP 
0 
ITEM: NUMBER OF ATOMS 
4 
ITEM: BOX BOUNDS 
0.000000e+00 2.000000e+00 xlo xhi 
0.000000e+00 2.000000e+00 xlo xhi 
0.000000e+00 2.000000e+00 xlo xhi 
ITEM: ATOMS id type x y z 
0 0 1.052248e+00 9.623033e-01 1.566130e+00 
1 1 1.734525e+00 1.127529e+00 1.376744e+00 
2 2 4.691147e-01 7.165002e-01 1.706799e+00 
3 3 5.931691e-01 8.397115e-01 1.270359e+00 
ITEM: TIMESTEP 
0 
ITEM: NUMBER OF ATOMS 
4 
ITEM: BOX BOUNDS 
0.000000e+00 2.000000e+00 xlo xhi 
0.000000e+00 2.000000e+00 xlo xhi 
0.000000e+00 2.000000e+00 xlo xhi 
ITEM: ATOMS id type x y z 
0 0 1.039202e+00 9.740468e-01 1.551640e+00 
1 1 1.743487e+00 1.131766e+00 1.379260e+00 
2 2 4.548388e-01 7.107354e-01 1.696230e+00 
3 3 5.908119e-01 8.412879e-01 1.262376e+00 
ITEM: TIMESTEP 
0 
ITEM: NUMBER OF ATOMS 
4 
ITEM: BOX BOUNDS 
0.000000e+00 2.000000e+00 xlo xhi 
0.000000e+00 2.000000e+00 xlo xhi 
0.000000e+00 2.000000e+00 xlo xhi 
ITEM: ATOMS id type x y z 
0 0 1.024041e+00 9.848732e-01 1.536879e+00 
1 1 1.754086e+00 1.138091e+00 1.379892e+00 
2 2 4.408642e-01 7.049192e-01 1.685964e+00 
3 3 5.890306e-01 8.428828e-01 1.253317e+00 
ITEM: TIMESTEP 
0 
ITEM: NUMBER OF ATOMS 
4 
ITEM: BOX BOUNDS 
0.000000e+00 2.000000e+00 xlo xhi 
0.000000e+00 2.000000e+00 xlo xhi 
0.000000e+00 2.000000e+00 xlo xhi 
ITEM: ATOMS id type x y z 
0 0 1.009532e+00 9.956052e-01 1.521813e+00 
1 1 1.763621e+00 1.142738e+00 1.381810e+00 
2 2 4.261928e-01 6.994527e-01 1.675018e+00 
3 3 5.888270e-01 8.447266e-01 1.244106e+00 
ITEM: TIMESTEP 
0 
ITEM: NUMBER OF ATOMS 
4 
ITEM: BOX BOUNDS 
0.000000e+00 2.000000e+00 xlo xhi 
0.000000e+00 2.000000e+00 xlo xhi 
0.000000e+00 2.000000e+00 xlo xhi 
ITEM: ATOMS id type x y z 
0 0 9.940454e-01 1.005348e+00 1.506772e+00 
1 1 1.773750e+00 1.148147e+00 1.384265e+00 
2 2 4.121177e-01 6.943013e-01 1.663914e+00 
3 3 5.877830e-01 8.447724e-01 1.235540e+00 
ITEM: TIMESTEP 
0 
ITEM: NUMBER OF ATOMS 
4 
ITEM: BOX BOUNDS 
0.000000e+00 2.000000e+00 xlo xhi 
0.000000e+00 2.000000e+00 xlo xhi 
0.000000e+00 2.000000e+00 xlo xhi 
ITEM: ATOMS id type x y z 
0 0 9.753307e-01 1.016209e+00 1.491184e+00 
1 1 1.786422e+00 1.153924e+00 1.386866e+00 
2 2 3.979080e-01 6.916124e-01 1.652575e+00 
3 3 5.866833e-01 8.435227e-01 1.228487e+00 
ITEM: TIMESTEP 
0 
ITEM: NUMBER OF ATOMS 
4 
ITEM: BOX BOUNDS 
0.000000e+00 2.000000e+00 xlo xhi 
0.000000e+00 2.000000e+00 xlo xhi 
0.000000e+00 2.000000e+00 xlo xhi 
ITEM: ATOMS id type x y z 
0 0 9.550105e-01 1.027650e+00 1.472861e+00 
1 1 1.800367e+00 1.158162e+00 1.388358e+00 
2 2 3.852952e-01 6.907228e-01 1.640866e+00 
3 3 5.864742e-01 8.429642e-01 1.222867e+00 
ITEM: TIMESTEP 
0 
ITEM: NUMBER OF ATOMS 
4 
ITEM: BOX BOUNDS 
0.000000e+00 2.000000e+00 xlo xhi 
0.000000e+00 2.000000e+00 xlo xhi 
0.000000e+00 2.000000e+00 xlo xhi 
ITEM: ATOMS id type x y z 
0 0 9.361419e-01 1.040287e+00 1.454815e+00 
1 1 1.814772e+00 1.163863e+00 1.390595e+00 