ITEM: TIMESTEP 
0 
ITEM: NUMBER OF ATOMS 
4 
ITEM: BOX BOUNDS 
0.000000e+00 2.000000e+00 xlo xhi 
0.000000e+00 2.000000e+00 xlo xhi 
0.000000e+00 2.000000e+00 xlo xhi 
ITEM: ATOMS id type x y z 
0 0 6.327931e-01 9.041049e-01 5.325870e-01 
1 1 7.049285e-01 1.356757e-01 1.253230e+00 
2 2 1.383471e+00 1.290441e+00 1.452359e+00 
3 3 1.636178e+00 4.918597e-01 1.521887e-01 
ITEM: TIMESTEP 
0 
ITEM: NUMBER OF ATOMS 
4 
ITEM: BOX BOUNDS 
0.000000e+00 2.000000e+00 xlo xhi 
0.000000e+00 2.000000e+00 xlo xhi 
0.000000e+00 2.000000e+00 xlo xhi 
ITEM: ATOMS id type x y z 
0 0 6.343575e-01 9.021086e-01 5.312582e-01 
1 1 7.047619e-01 1.363125e-01 1.253788e+00 
2 2 1.382176e+00 1.291238e+00 1.453050e+00 
3 3 1.636025e+00 4.922712e-01 1.521022e-01 
ITEM: TIMESTEP 
0 
ITEM: NUMBER OF ATOMS 
4 
ITEM: BOX BOUNDS 
0.000000e+00 2.000000e+00 xlo xhi 
0.000000e+00 2.000000e+00 xlo xhi 
0.000000e+00 2.000000e+00 xlo xhi 
ITEM: ATOMS id type x y z 
0 0 6.509507e-01 8.806598e-01 5.177981e-01 
1 1 7.044688e-01 1.421126e-01 1.259417e+00 
2 2 1.368931e+00 1.299000e+00 1.460968e+00 
3 3 1.632990e+00 4.970137e-01 1.518817e-01 
ITEM: TIMESTEP 
0 
ITEM: NUMBER OF ATOMS 
4 
ITEM: BOX BOUNDS 
0.000000e+00 2.000000e+00 xlo xhi 
0.000000e+00 2.000000e+00 xlo xhi 
0.000000e+00 2.000000e+00 xlo xhi 
ITEM: ATOMS id type x y z 
0 0 6.712714e-01 8.600800e-01 5.069011e-01 
1 1 7.057321e-01 1.491187e-01 1.263771e+00 
2 2 1.355599e+00 1.307047e+00 1.468953e+00 
3 3 1.625124e+00 5.031511e-01 1.506688e-01 
ITEM: TIMESTEP 
0 
ITEM: NUMBER OF ATOMS 
4 
ITEM: BOX BOUNDS 
0.000000e+00 2.000000e+00 xlo xhi 
0.000000e+00 2.000000e+00 xlo xhi 
0.000000e+00 2.000000e+00 xlo xhi 
ITEM: ATOMS id type x y z 
0 0 6.941751e-01 8.412565e-01 4.992211e-01 
1 1 7.103496e-01 1.549681e-01 1.265710e+00 
2 2 1.340576e+00 1.315080e+00 1.476094e+00 
3 3 1.613443e+00 5.121221e-01 1.476680e-01 
ITEM: TIMESTEP 
0 
ITEM: NUMBER OF ATOMS 
4 
ITEM: BOX BOUNDS 
0.000000e+00 2.000000e+00 xlo xhi 
0.000000e+00 2.000000e+00 xlo xhi 
0.000000e+00 2.000000e+00 xlo xhi 
ITEM: ATOMS id type x y z 
0 0 7.184276e-01 8.226881e-01 4.931993e-01 
1 1 7.169996e-01 1.611928e-01 1.265833e+00 
2 2 1.324097e+00 1.324178e+00 1.482411e+00 
3 3 1.599914e+00 5.227270e-01 1.430657e-01 
ITEM: TIMESTEP 
0 
ITEM: NUMBER OF ATOMS 
4 
ITEM: BOX BOUNDS 
0.000000e+00 2.000000e+00 xlo xhi 
0.000000e+00 2.000000e+00 xlo xhi 
0.000000e+00 2.000000e+00 xlo xhi 
ITEM: ATOMS id type x y z 
0 0 7.465326e-01 8.046273e-01 4.895527e-01 
1 1 7.270174e-01 1.657476e-01 1.265843e+00 
2 2 1.305861e+00 1.331996e+00 1.488299e+00 
3 3 1.584336e+00 5.317504e-01 1.357007e-01 
ITEM: TIMESTEP 
0 
ITEM: NUMBER OF ATOMS 
4 
ITEM: BOX BOUNDS 
0.000000e+00 2.000000e+00 xlo xhi 
0.000000e+00 2.000000e+00 xlo xhi 
0.000000e+00 2.000000e+00 xlo xhi 
ITEM: ATOMS id type x y z 
0 0 7.754204e-01 7.881044e-01 4.877010e-01 
1 1 7.377869e-01 1.696204e-01 1.268672e+00 
2 2 1.285417e+00 1.338254e+00 1.493494e+00 
3 3 1.568051e+00 5.397276e-01 1.272389e-01 
ITEM: TIMESTEP 
0 
ITEM: NUMBER OF ATOMS 
4 
ITEM: BOX BOUNDS 
0.000000e+00 2.000000e+00 xlo xhi 
0.000000e+00 2.000000e+00 xlo xhi 
0.000000e+00 2.000000e+00 xlo xhi 
ITEM: ATOMS id type x y z 
0 0 8.057332e-01 7.737322e-01 4.833047e-01 
1 1 7.496042e-01 1.744824e-01 1.272249e+00 
2 2 1.264740e+00 1.342594e+00 1.500738e+00 
3 3 1.550650e+00 5.485549e-01 1.170289e-01 
ITEM: TIMESTEP 
0 
ITEM: NUMBER OF ATOMS 
4 
ITEM: BOX BOUNDS 
0.000000e+00 2.000000e+00 xlo xhi 
0.000000e+00 2.000000e+00 xlo xhi 
0.000000e+00 2.000000e+00 xlo xhi 
ITEM: ATOMS id type x y z 
0 0 8.373164e-01 7.619470e-01 4.765726e-01 
1 1 7.607523e-01 1.810591e-01 1.278372e+00 
2 2 1.243468e+00 1.344019e+00 1.510022e+00 
3 3 1.531447e+00 5.588407e-01 1.063826e-01 
ITEM: TIMESTEP 
0 
ITEM: NUMBER OF ATOMS 
4 
ITEM: BOX BOUNDS 
0.000000e+00 2.000000e+00 xlo xhi 
0.000000e+00 2.000000e+00 xlo xhi 
0.000000e+00 2.000000e+00 xlo xhi 
ITEM: ATOMS id type x y z 
0 0 8.698102e-01 7.542581e-01 4.678761e-01 
1 1 7.714514e-01 1.867240e-01 1.285910e+00 
2 2 1.222916e+00 1.344624e+00 1.520666e+00 
3 3 1.509838e+00 5.706767e-01 9.559812e-02 
ITEM: TIMESTEP 
0 
ITEM: NUMBER OF ATOMS 
4 
ITEM: BOX BOUNDS 
0.000000e+00 2.000000e+00 xlo xhi 
0.000000e+00 2.000000e+00 xlo xhi 
0.000000e+00 2.000000e+00 xlo xhi 
ITEM: ATOMS id type x y z 
0 0 9.015427e-01 7.477158e-01 4.555256e-01 
1 1 7.836092e-01 1.925422e-01 1.294399e+00 
2 2 1.201751e+00 1.344505e+00 1.534357e+00 
3 3 1.485740e+00 5.841182e-01 8.389999e-02 
ITEM: TIMESTEP 
0 
ITEM: NUMBER OF ATOMS 
4 
ITEM: BOX BOUNDS 
0.000000e+00 2.000000e+00 xlo xhi 
0.000000e+00 2.000000e+00 xlo xhi 
0.000000e+00 2.000000e+00 xlo xhi 
ITEM: ATOMS id type x y z 
0 0 9.332515e-01 7.415456e-01 4.423801e-01 
1 1 7.972942e-01 1.995254e-01 1.304738e+00 
2 2 1.180774e+00 1.344746e+00 1.548411e+00 
3 3 1.458689e+00 5.983070e-01 6.910758e-02 
ITEM: TIMESTEP 
0 
ITEM: NUMBER OF ATOMS 
4 
ITEM: BOX BOUNDS 
0.000000e+00 2.000000e+00 xlo xhi 
0.000000e+00 2.000000e+00 xlo xhi 
0.000000e+00 2.000000e+00 xlo xhi 
ITEM: ATOMS id type x y z 
0 0 9.656821e-01 7.359028e-01 4.288819e-01 
1 1 8.131474e-01 2.082941e-01 1.314768e+00 
2 2 1.159625e+00 1.342477e+00 1.564115e+00 
3 3 1.430142e+00 6.143403e-01 5.004981e-02 
ITEM: TIMESTEP 
0 
ITEM: NUMBER OF ATOMS 
4 
ITEM: BOX BOUNDS 
0.000000e+00 2.000000e+00 xlo xhi 
0.000000e+00 2.000000e+00 xlo xhi 
0.000000e+00 2.000000e+00 xlo xhi 
ITEM: ATOMS id type x y z 
0 0 9.947955e-01 7.298929e-01 4.196427e-01 
1 1 8.299912e-01 2.189130e-01 1.323383e+00 
2 2 1.139587e+00 1.339485e+00 1.582037e+00 
3 3 1.406702e+00 6.294875e-01 2.622382e-02 
ITEM: TIMESTEP 
0 
ITEM: NUMBER OF ATOMS 
4 
ITEM: BOX BOUNDS 
0.000000e+00 2.000000e+00 xlo xhi 
0.000000e+00 2.000000e+00 xlo xhi 
0.000000e+00 2.000000e+00 xlo xhi 
ITEM: ATOMS id type x y z 
0 0 1.013443e+00 7.265149e-01 4.212798e-01 
1 1 8.472590e-01 2.294948e-01 1.328507e+00 
2 2 1.119202e+00 1.336319e+00 1.602639e+00 
3 3 1.394700e+00 6.415820e-01 1.994424e+00 
ITEM: TIMESTEP 
0 
ITEM: NUMBER OF ATOMS 
4 
ITEM: BOX BOUNDS 
0.000000e+00 2.000000e+00 xlo xhi 
0.000000e+00 2.000000e+00 xlo xhi 
0.000000e+00 2.000000e+00 xlo xhi 
ITEM: ATOMS id type x y z 
0 0 1.022388e+00 7.247926e-01 4.343998e-01 
1 1 8.648661e-01 2.389290e-01 1.331173e+00 
2 2 1.096971e+00 1.332439e+00 1.625410e+00 
3 3 1.389123e+00 6.524698e-01 1.952116e+00 
ITEM: TIMESTEP 
0 
ITEM: NUMBER OF ATOMS 
4 
ITEM: BOX BOUNDS 
0.000000e+00 2.000000e+00 xlo xhi 
0.000000e+00 2.000000e+00 xlo xhi 
0.000000e+00 2.000000e+00 xlo xhi 
ITEM: ATOMS id type x y z 
0 0 1.026406e+00 7.231733e-01 4.549052e-01 
1 1 8.827075e-01 2.489038e-01 1.330646e+00 
2 2 1.076925e+00 1.328399e+00 1.648640e+00 
3 3 1.385478e+00 6.628791e-01 1.905516e+00 
ITEM: TIMESTEP 
0 
ITEM: NUMBER OF ATOMS 
4 
ITEM: BOX BOUNDS 
0.000000e+00 2.000000e+00 xlo xhi 
0.000000e+00 2.000000e+00 xlo xhi 
0.000000e+00 2.000000e+00 xlo xhi 
ITEM: ATOMS id type x y z 
0 0 1.029678e+00 7.210408e-01 4.763511e-01 
1 1 9.011852e-01 2.611157e-01 1.330039e+00 
2 2 1.059030e+00 1.323699e+00 1.670470e+00 
3 3 1.383372e+00 6.729738e-01 1.857866e+00 
ITEM: TIMESTEP 
0 
ITEM: NUMBER OF ATOMS 
4 
ITEM: BOX BOUNDS 
0.000000e+00 2.000000e+00 xlo xhi 
0.000000e+00 2.000000e+00 xlo xhi 
0.000000e+00 2.000000e+00 xlo xhi 
ITEM: ATOMS id type x y z 
0 0 1.032364e+00 7.189487e-01 4.977911e-01 
1 1 9.180332e-01 2.732629e-01 1.330266e+00 
2 2 1.041002e+00 1.316765e+00 1.693785e+00 
3 3 1.382294e+00 6.816995e-01 1.810051e+00 
ITEM: TIMESTEP 
0 
ITEM: NUMBER OF ATOMS 
4 
ITEM: BOX BOUNDS 
0.000000e+00 2.000000e+00 xlo xhi 
0.000000e+00 2.000000e+00 xlo xhi 
0.000000e+00 2.000000e+00 xlo xhi 
ITEM: ATOMS id type x y z 
0 0 1.034999e+00 7.176904e-01 5.173756e-01 
1 1 9.373075e-01 2.848640e-01 1.332014e+00 
2 2 1.021716e+00 1.311427e+00 1.717149e+00 
3 3 1.380936e+00 6.923601e-01 1.761417e+00 
ITEM: TIMESTEP 
0 
ITEM: NUMBER OF ATOMS 
4 
ITEM: BOX BOUNDS 
0.000000e+00 2.000000e+00 xlo xhi 
0.000000e+00 2.000000e+00 xlo xhi 
0.000000e+00 2.000000e+00 xlo xhi 
ITEM: ATOMS id type x y z 
0 0 1.036326e+00 7.158756e-01 5.362283e-01 
1 1 9.594040e-01 2.959740e-01 1.334055e+00 
2 2 1.002579e+00 1.308684e+00 1.739684e+00 
3 3 1.378892e+00 7.024468e-01 1.712103e+00 
ITEM: TIMESTEP 
0 
ITEM: NUMBER OF ATOMS 
4 
ITEM: BOX BOUNDS 
0.000000e+00 2.000000e+00 xlo xhi 
0.000000e+00 2.000000e+00 xlo xhi 
0.000000e+00 2.000000e+00 xlo xhi 
ITEM: ATOMS id type x y z 
0 0 1.037556e+00 7.138722e-01 5.540999e-01 
1 1 9.819214e-01 3.069102e-01 1.335593e+00 
2 2 9.853618e-01 1.306981e+00 1.762117e+00 
3 3 1.374794e+00 7.131563e-01 1.661594e+00 
ITEM: TIMESTEP 
0 
ITEM: NUMBER OF ATOMS 
4 
ITEM: BOX BOUNDS 
0.000000e+00 2.000000e+00 xlo xhi 
0.000000e+00 2.000000e+00 xlo xhi 
0.000000e+00 2.000000e+00 xlo xhi 
ITEM: ATOMS id type x y z 
0 0 1.040506e+00 7.127377e-01 5.712148e-01 
1 1 1.004212e+00 3.160485e-01 1.338298e+00 
2 2 9.697089e-01 1.305758e+00 1.782575e+00 
3 3 1.368747e+00 7.261671e-01 1.613469e+00 
ITEM: TIMESTEP 
0 
ITEM: NUMBER OF ATOMS 
4 
ITEM: BOX BOUNDS 
0.000000e+00 2.000000e+00 xlo xhi 
0.000000e+00 2.000000e+00 xlo xhi 
0.000000e+00 2.000000e+00 xlo xhi 
ITEM: ATOMS id type x y z 
0 0 1.044607e+00 7.114447e-01 5.867316e-01 
1 1 1.023132e+00 3.247601e-01 1.339596e+00 
2 2 9.543799e-01 1.299947e+00 1.801845e+00 
3 3 1.365977e+00 7.440226e-01 1.568113e+00 
ITEM: TIMESTEP 
0 
ITEM: NUMBER OF ATOMS 
4 
ITEM: BOX BOUNDS 
0.000000e+00 2.000000e+00 xlo xhi 
0.000000e+00 2.000000e+00 xlo xhi 
0.000000e+00 2.000000e+00 xlo xhi 
ITEM: ATOMS id type x y z 
0 0 1.049180e+00 7.100842e-01 6.025148e-01 
1 1 1.035755e+00 3.271213e-01 1.336604e+00 
2 2 9.413149e-01 1.291409e+00 1.820587e+00 
3 3 1.368907e+00 7.684790e-01 1.527176e+00 
ITEM: TIMESTEP 
0 
ITEM: NUMBER OF ATOMS 
4 
ITEM: BOX BOUNDS 
0.000000e+00 2.000000e+00 xlo xhi 
0.000000e+00 2.000000e+00 xlo xhi 
0.000000e+00 2.000000e+00 xlo xhi 
ITEM: ATOMS id type x y z 
0 0 1.053916e+00 7.092348e-01 6.194471e-01 
1 1 1.040581e+00 3.208871e-01 1.329253e+00 
2 2 9.292484e-01 1.280357e+00 1.835958e+00 
3 3 1.377690e+00 8.028823e-01 1.490402e+00 
ITEM: TIMESTEP 
0 
ITEM: NUMBER OF ATOMS 
4 
ITEM: BOX BOUNDS 
0.000000e+00 2.000000e+00 xlo xhi 
0.000000e+00 2.000000e+00 xlo xhi 
0.000000e+00 2.000000e+00 xlo xhi 
ITEM: ATOMS id type x y z 
0 0 1.057286e+00 7.085656e-01 6.373354e-01 
1 1 1.040788e+00 3.108169e-01 1.318502e+00 
2 2 9.196870e-01 1.268775e+00 1.847986e+00 
3 3 1.389649e+00 8.432065e-01 1.456383e+00 
ITEM: TIMESTEP 
0 
ITEM: NUMBER OF ATOMS 
4 
ITEM: BOX BOUNDS 
0.000000e+00 2.000000e+00 xlo xhi 
0.000000e+00 2.000000e+00 xlo xhi 
0.000000e+00 2.000000e+00 xlo xhi 
ITEM: ATOMS id type x y z 
0 0 1.059312e+00 7.051011e-01 6.542317e-01 
1 1 1.039609e+00 3.012778e-01 1.309269e+00 
2 2 9.095846e-01 1.253976e+00 1.858305e+00 
3 3 1.399802e+00 8.846530e-01 1.422723e+00 
ITEM: TIMESTEP 
0 
ITEM: NUMBER OF ATOMS 
4 
ITEM: BOX BOUNDS 
0.000000e+00 2.000000e+00 xlo xhi 
0.000000e+00 2.000000e+00 xlo xhi 
0.000000e+00 2.000000e+00 xlo xhi 
ITEM: ATOMS id type x y z 
0 0 1.062735e+00 7.003468e-01 6.714283e-01 
1 1 1.039385e+00 2.941670e-01 1.300396e+00 
2 2 9.002073e-01 1.236876e+00 1.864913e+00 
3 3 1.407145e+00 9.251502e-01 1.388384e+00 
ITEM: TIMESTEP 
0 
ITEM: NUMBER OF ATOMS 
4 
ITEM: BOX BOUNDS 
0.000000e+00 2.000000e+00 xlo xhi 
0.000000e+00 2.000000e+00 xlo xhi 
0.000000e+00 2.000000e+00 xlo xhi 
ITEM: ATOMS id type x y z 
0 0 1.064942e+00 6.962239e-01 6.895386e-01 
1 1 1.039067e+00 2.907933e-01 1.292410e+00 
2 2 8.915251e-01 1.216795e+00 1.869760e+00 
3 3 1.412588e+00 9.632114e-01 1.356500e+00 
ITEM: TIMESTEP 
0 
ITEM: NUMBER OF ATOMS 
4 
ITEM: BOX BOUNDS 
0.000000e+00 2.000000e+00 xlo xhi 
0.000000e+00 2.000000e+00 xlo xhi 
0.000000e+00 2.000000e+00 xlo xhi 
ITEM: ATOMS id type x y z 
0 0 1.067435e+00 6.914952e-01 7.077072e-01 
1 1 1.037361e+00 2.921788e-01 1.285210e+00 
2 2 8.855268e-01 1.194949e+00 1.872228e+00 
3 3 1.416584e+00 9.995280e-01 1.325717e+00 
ITEM: TIMESTEP 
0 
ITEM: NUMBER OF ATOMS 
4 
ITEM: BOX BOUNDS 
0.000000e+00 2.000000e+00 xlo xhi 
0.000000e+00 2.000000e+00 xlo xhi 
0.000000e+00 2.000000e+00 xlo xhi 
ITEM: ATOMS id type x y z 
0 0 1.070046e+00 6.892241e-01 7.268000e-01 
1 1 1.036277e+00 2.958723e-01 1.279920e+00 
2 2 8.778091e-01 1.172695e+00 1.873061e+00 
3 3 1.419634e+00 1.035285e+00 1.294360e+00 
ITEM: TIMESTEP 
0 
ITEM: NUMBER OF ATOMS 
4 
ITEM: BOX BOUNDS 
0.000000e+00 2.000000e+00 xlo xhi 
0.000000e+00 2.000000e+00 xlo xhi 
0.000000e+00 2.000000e+00 xlo xhi 
ITEM: ATOMS id type x y z 
0 0 1.072176e+00 6.857326e-01 7.446346e-01 
1 1 1.035141e+00 3.018811e-01 1.275877e+00 
2 2 8.702121e-01 1.148989e+00 1.872129e+00 
3 3 1.420364e+00 1.069142e+00 1.263786e+00 
ITEM: TIMESTEP 
0 
ITEM: NUMBER OF ATOMS 
4 
ITEM: BOX BOUNDS 
0.000000e+00 2.000000e+00 xlo xhi 
0.000000e+00 2.000000e+00 xlo xhi 
0.000000e+00 2.000000e+00 xlo xhi 
ITEM: ATOMS id type x y z 
0 0 1.073469e+00 6.832963e-01 7.623185e-01 
1 1 1.033015e+00 3.105403e-01 1.273628e+00 
2 2 8.613996e-01 1.122658e+00 1.869471e+00 
3 3 1.420139e+00 1.100155e+00 1.232352e+00 
ITEM: TIMESTEP 
0 
ITEM: NUMBER OF ATOMS 
4 
ITEM: BOX BOUNDS 
0.000000e+00 2.000000e+00 xlo xhi 
0.000000e+00 2.000000e+00 xlo xhi 
0.000000e+00 2.000000e+00 xlo xhi 
ITEM: ATOMS id type x y z 
0 0 1.073670e+00 6.816750e-01 7.780561e-01 
1 1 1.030479e+00 3.193736e-01 1.273413e+00 
2 2 8.522388e-01 1.094005e+00 1.865427e+00 
3 3 1.419331e+00 1.129339e+00 1.201645e+00 
ITEM: TIMESTEP 
0 
ITEM: NUMBER OF ATOMS 
4 
ITEM: BOX BOUNDS 
0.000000e+00 2.000000e+00 xlo xhi 
0.000000e+00 2.000000e+00 xlo xhi 
0.000000e+00 2.000000e+00 xlo xhi 
ITEM: ATOMS id type x y z 
0 0 1.074180e+00 6.845665e-01 7.870962e-01 
1 1 1.027263e+00 3.256840e-01 1.277360e+00 
2 2 8.446379e-01 1.064669e+00 1.859429e+00 
3 3 1.417179e+00 1.156336e+00 1.173070e+00 
ITEM: TIMESTEP 
0 
ITEM: NUMBER OF ATOMS 
4 
ITEM: BOX BOUNDS 
0.000000e+00 2.000000e+00 xlo xhi 
0.000000e+00 2.000000e+00 xlo xhi 
0.000000e+00 2.000000e+00 xlo xhi 
ITEM: ATOMS id type x y z 
0 0 1.074916e+00 6.936892e-01 7.902374e-01 
1 1 1.024182e+00 3.305183e-01 1.287668e+00 
2 2 8.397571e-01 1.036410e+00 1.851560e+00 
3 3 1.415001e+00 1.182719e+00 1.144550e+00 
ITEM: TIMESTEP 
0 
ITEM: NUMBER OF ATOMS 
4 
ITEM: BOX BOUNDS 
0.000000e+00 2.000000e+00 xlo xhi 
0.000000e+00 2.000000e+00 xlo xhi 
0.000000e+00 2.000000e+00 xlo xhi 
ITEM: ATOMS id type x y z 
0 0 1.076103e+00 7.073259e-01 7.896463e-01 
1 1 1.019822e+00 3.343703e-01 1.301810e+00 
2 2 8.353768e-01 1.008082e+00 1.844286e+00 
3 3 1.413689e+00 1.207731e+00 1.114950e+00 
ITEM: TIMESTEP 
0 
ITEM: NUMBER OF ATOMS 
4 
ITEM: BOX BOUNDS 
0.000000e+00 2.000000e+00 xlo xhi 
0.000000e+00 2.000000e+00 xlo xhi 
0.000000e+00 2.000000e+00 xlo xhi 
ITEM: ATOMS id type x y z 
0 0 1.077372e+00 7.233840e-01 7.857817e-01 
1 1 1.016283e+00 3.373811e-01 1.314570e+00 
2 2 8.294153e-01 9.803122e-01 1.838810e+00 
3 3 1.412480e+00 1.231871e+00 1.086705e+00 
ITEM: TIMESTEP 
0 
ITEM: NUMBER OF ATOMS 
4 
ITEM: BOX BOUNDS 
0.000000e+00 2.000000e+00 xlo xhi 
0.000000e+00 2.000000e+00 xlo xhi 
0.000000e+00 2.000000e+00 xlo xhi 
ITEM: ATOMS id type x y z 
0 0 1.080201e+00 7.399332e-01 7.809273e-01 
1 1 1.012371e+00 3.403950e-01 1.326969e+00 
2 2 8.231145e-01 9.536760e-01 1.834151e+00 
3 3 1.408131e+00 1.252611e+00 1.057301e+00 
ITEM: TIMESTEP 
0 
ITEM: NUMBER OF ATOMS 
4 
ITEM: BOX BOUNDS 
0.000000e+00 2.000000e+00 xlo xhi 
0.000000e+00 2.000000e+00 xlo xhi 
0.000000e+00 2.000000e+00 xlo xhi 
ITEM: ATOMS id type x y z 
0 0 1.083482e+00 7.546955e-01 7.763751e-01 
1 1 1.009685e+00 3.449555e-01 1.340691e+00 
2 2 8.175291e-01 9.287146e-01 1.828705e+00 
3 3 1.401590e+00 1.272364e+00 1.028117e+00 
ITEM: TIMESTEP 
0 
ITEM: NUMBER OF ATOMS 
4 
ITEM: BOX BOUNDS 
0.000000e+00 2.000000e+00 xlo xhi 
0.000000e+00 2.000000e+00 xlo xhi 
0.000000e+00 2.000000e+00 xlo xhi 
ITEM: ATOMS id type x y z 
0 0 1.084548e+00 7.681933e-01 7.711270e-01 
1 1 1.009321e+00 3.526666e-01 1.354815e+00 
2 2 8.099753e-01 9.049143e-01 1.820593e+00 
3 3 1.395449e+00 1.289578e+00 1.004484e+00 
ITEM: TIMESTEP 
0 
ITEM: NUMBER OF ATOMS 
4 
ITEM: BOX BOUNDS 
0.000000e+00 2.000000e+00 xlo xhi 
0.000000e+00 2.000000e+00 xlo xhi 
0.000000e+00 2.000000e+00 xlo xhi 
ITEM: ATOMS id type x y z 
0 0 1.083184e+00 7.800739e-01 7.657938e-01 
1 1 1.009377e+00 3.620322e-01 1.367428e+00 
2 2 8.040363e-01 8.802772e-01 1.808529e+00 
3 3 1.388207e+00 1.302991e+00 9.851525e-01 
ITEM: TIMESTEP 
0 
ITEM: NUMBER OF ATOMS 
4 
ITEM: BOX BOUNDS 
0.000000e+00 2.000000e+00 xlo xhi 
0.000000e+00 2.000000e+00 xlo xhi 
0.000000e+00 2.000000e+00 xlo xhi 
ITEM: ATOMS id type x y z 
0 0 1.080172e+00 7.911588e-01 7.603369e-01 
1 1 1.011377e+00 3.727042e-01 1.379570e+00 
2 2 7.993280e-01 8.566119e-01 1.793927e+00 
3 3 1.378409e+00 1.314736e+00 9.689693e-01 
ITEM: TIMESTEP 
0 
ITEM: NUMBER OF ATOMS 
4 
ITEM: BOX BOUNDS 
0.000000e+00 2.000000e+00 xlo xhi 
0.000000e+00 2.000000e+00 xlo xhi 
0.000000e+00 2.000000e+00 xlo xhi 
ITEM: ATOMS id type x y z 
0 0 1.075950e+00 8.021634e-01 7.560836e-01 
1 1 1.015074e+00 3.866815e-01 1.388630e+00 
2 2 7.955710e-01 8.374073e-01 1.777688e+00 
3 3 1.366961e+00 1.324473e+00 9.555602e-01 
ITEM: TIMESTEP 
0 
ITEM: NUMBER OF ATOMS 
4 
ITEM: BOX BOUNDS 
0.000000e+00 2.000000e+00 xlo xhi 
0.000000e+00 2.000000e+00 xlo xhi 
0.000000e+00 2.000000e+00 xlo xhi 
ITEM: ATOMS id type x y z 
0 0 1.070665e+00 8.107511e-01 7.513101e-01 
1 1 1.019908e+00 4.005231e-01 1.393006e+00 
2 2 7.916826e-01 8.218725e-01 1.762857e+00 
3 3 1.354528e+00 1.332384e+00 9.451763e-01 
ITEM: TIMESTEP 
0 
ITEM: NUMBER OF ATOMS 
4 
ITEM: BOX BOUNDS 
0.000000e+00 2.000000e+00 xlo xhi 
0.000000e+00 2.000000e+00 xlo xhi 
0.000000e+00 2.000000e+00 xlo xhi 
ITEM: ATOMS id type x y z 
0 0 1.061353e+00 8.145127e-01 7.440220e-01 
1 1 1.030039e+00 4.110397e-01 1.390280e+00 
2 2 7.852376e-01 8.107108e-01 1.753126e+00 
3 3 1.342740e+00 1.339994e+00 9.375967e-01 
ITEM: TIMESTEP 
0 
ITEM: NUMBER OF ATOMS 
4 
ITEM: BOX BOUNDS 
0.000000e+00 2.000000e+00 xlo xhi 
0.000000e+00 2.000000e+00 xlo xhi 
0.000000e+00 2.000000e+00 xlo xhi 
ITEM: ATOMS id type x y z 
0 0 1.050541e+00 8.142907e-01 7.338694e-01 
1 1 1.046484e+00 4.166094e-01 1.380197e+00 
2 2 7.750979e-01 8.072621e-01 1.751851e+00 
3 3 1.332031e+00 1.347391e+00 9.331545e-01 
ITEM: TIMESTEP 
0 
ITEM: NUMBER OF ATOMS 
4 
ITEM: BOX BOUNDS 
0.000000e+00 2.000000e+00 xlo xhi 
0.000000e+00 2.000000e+00 xlo xhi 
0.000000e+00 2.000000e+00 xlo xhi 
ITEM: ATOMS id type x y z 
0 0 1.038128e+00 8.119991e-01 7.216849e-01 
1 1 1.066753e+00 4.182470e-01 1.363929e+00 
2 2 7.638439e-01 8.086349e-01 1.754450e+00 
3 3 1.321587e+00 1.354837e+00 9.302209e-01 
ITEM: TIMESTEP 
0 
ITEM: NUMBER OF ATOMS 
4 
ITEM: BOX BOUNDS 
0.000000e+00 2.000000e+00 xlo xhi 
0.000000e+00 2.000000e+00 xlo xhi 
0.000000e+00 2.000000e+00 xlo xhi 
ITEM: ATOMS id type x y z 
0 0 1.022894e+00 8.080574e-01 7.091947e-01 
1 1 1.087130e+00 4.189066e-01 1.342731e+00 
2 2 7.522572e-01 8.113509e-01 1.756081e+00 
3 3 1.312031e+00 1.363363e+00 9.277851e-01 
ITEM: TIMESTEP 
0 
ITEM: NUMBER OF ATOMS 
4 
ITEM: BOX BOUNDS 
0.000000e+00 2.000000e+00 xlo xhi 
0.000000e+00 2.000000e+00 xlo xhi 
0.000000e+00 2.000000e+00 xlo xhi 
ITEM: ATOMS id type x y z 
0 0 1.007305e+00 8.025285e-01 6.974913e-01 
1 1 1.108174e+00 4.193443e-01 1.318597e+00 
2 2 7.425319e-01 8.150318e-01 1.756182e+00 
3 3 1.301230e+00 1.370926e+00 9.275588e-01 
ITEM: TIMESTEP 
0 
ITEM: NUMBER OF ATOMS 
4 
ITEM: BOX BOUNDS 
0.000000e+00 2.000000e+00 xlo xhi 
0.000000e+00 2.000000e+00 xlo xhi 
0.000000e+00 2.000000e+00 xlo xhi 
ITEM: ATOMS id type x y z 
0 0 9.914287e-01 7.992632e-01 6.878019e-01 
1 1 1.130346e+00 4.200841e-01 1.294576e+00 
2 2 7.343239e-01 8.209324e-01 1.754186e+00 
3 3 1.290338e+00 1.375596e+00 9.305440e-01 
ITEM: TIMESTEP 
0 
ITEM: NUMBER OF ATOMS 
4 
ITEM: BOX BOUNDS 
0.000000e+00 2.000000e+00 xlo xhi 
0.000000e+00 2.000000e+00 xlo xhi 
0.000000e+00 2.000000e+00 xlo xhi 
ITEM: ATOMS id type x y z 
0 0 9.744130e-01 7.984408e-01 6.770731e-01 
1 1 1.152671e+00 4.219709e-01 1.269448e+00 
2 2 7.259850e-01 8.297173e-01 1.749152e+00 
3 3 1.277824e+00 1.375005e+00 9.341880e-01 
ITEM: TIMESTEP 
0 
ITEM: NUMBER OF ATOMS 
4 
ITEM: BOX BOUNDS 
0.000000e+00 2.000000e+00 xlo xhi 
0.000000e+00 2.000000e+00 xlo xhi 
0.000000e+00 2.000000e+00 xlo xhi 
ITEM: ATOMS id type x y z 
0 0 9.573673e-01 7.983134e-01 6.662846e-01 
1 1 1.175040e+00 4.248586e-01 1.243788e+00 
2 2 7.187257e-01 8.388848e-01 1.743055e+00 
3 3 1.264139e+00 1.373757e+00 9.364611e-01 
ITEM: TIMESTEP 
0 
ITEM: NUMBER OF ATOMS 
4 
ITEM: BOX BOUNDS 
0.000000e+00 2.000000e+00 xlo xhi 
0.000000e+00 2.000000e+00 xlo xhi 
0.000000e+00 2.000000e+00 xlo xhi 
ITEM: ATOMS id type x y z 
0 0 9.410535e-01 7.974762e-01 6.557543e-01 
1 1 1.195982e+00 4.290167e-01 1.218578e+00 
2 2 7.130190e-01 8.484906e-01 1.737552e+00 
3 3 1.249747e+00 1.371148e+00 9.375244e-01 
ITEM: TIMESTEP 
0 
ITEM: NUMBER OF ATOMS 
4 
ITEM: BOX BOUNDS 
0.000000e+00 2.000000e+00 xlo xhi 
0.000000e+00 2.000000e+00 xlo xhi 
0.000000e+00 2.000000e+00 xlo xhi 
ITEM: ATOMS id type x y z 
0 0 9.252640e-01 7.967083e-01 6.471117e-01 
1 1 1.215586e+00 4.349767e-01 1.193608e+00 
2 2 7.063427e-01 8.571117e-01 1.729236e+00 
3 3 1.235474e+00 1.367260e+00 9.377250e-01 
ITEM: TIMESTEP 
0 
ITEM: NUMBER OF ATOMS 
4 
ITEM: BOX BOUNDS 
0.000000e+00 2.000000e+00 xlo xhi 
0.000000e+00 2.000000e+00 xlo xhi 
0.000000e+00 2.000000e+00 xlo xhi 
ITEM: ATOMS id type x y z 
0 0 9.095020e-01 7.961256e-01 6.415873e-01 
1 1 1.233521e+00 4.437820e-01 1.168840e+00 
2 2 7.000974e-01 8.655415e-01 1.720724e+00 
3 3 1.220020e+00 1.360647e+00 9.366295e-01 
ITEM: TIMESTEP 
0 
ITEM: NUMBER OF ATOMS 
4 
ITEM: BOX BOUNDS 
0.000000e+00 2.000000e+00 xlo xhi 
0.000000e+00 2.000000e+00 xlo xhi 
0.000000e+00 2.000000e+00 xlo xhi 
ITEM: ATOMS id type x y z 
0 0 8.927018e-01 7.966282e-01 6.376112e-01 
1 1 1.250647e+00 4.540807e-01 1.143391e+00 
2 2 6.964977e-01 8.727324e-01 1.710781e+00 
3 3 1.200776e+00 1.351475e+00 9.369996e-01 
ITEM: TIMESTEP 
0 
ITEM: NUMBER OF ATOMS 
4 
ITEM: BOX BOUNDS 
0.000000e+00 2.000000e+00 xlo xhi 
0.000000e+00 2.000000e+00 xlo xhi 
0.000000e+00 2.000000e+00 xlo xhi 
ITEM: ATOMS id type x y z 
0 0 8.768550e-01 7.986406e-01 6.339726e-01 
1 1 1.268594e+00 4.624442e-01 1.118342e+00 
2 2 6.944364e-01 8.790547e-01 1.697294e+00 
3 3 1.180579e+00 1.340199e+00 9.381348e-01 
ITEM: TIMESTEP 
0 
ITEM: NUMBER OF ATOMS 
4 
ITEM: BOX BOUNDS 
0.000000e+00 2.000000e+00 xlo xhi 
0.000000e+00 2.000000e+00 xlo xhi 
0.000000e+00 2.000000e+00 xlo xhi 
ITEM: ATOMS id type x y z 
0 0 8.625017e-01 8.028145e-01 6.304816e-01 
1 1 1.287824e+00 4.712206e-01 1.095106e+00 
2 2 6.916672e-01 8.849287e-01 1.683993e+00 
3 3 1.161302e+00 1.329213e+00 9.409547e-01 
ITEM: TIMESTEP 
0 
ITEM: NUMBER OF ATOMS 
4 
ITEM: BOX BOUNDS 
0.000000e+00 2.000000e+00 xlo xhi 
0.000000e+00 2.000000e+00 xlo xhi 
0.000000e+00 2.000000e+00 xlo xhi 
ITEM: ATOMS id type x y z 
0 0 8.502548e-01 8.079696e-01 6.280307e-01 
1 1 1.307137e+00 4.835226e-01 1.073047e+00 
2 2 6.879235e-01 8.905369e-01 1.670865e+00 
3 3 1.140932e+00 1.317846e+00 9.442151e-01 
ITEM: TIMESTEP 
0 
ITEM: NUMBER OF ATOMS 
4 
ITEM: BOX BOUNDS 
0.000000e+00 2.000000e+00 xlo xhi 
0.000000e+00 2.000000e+00 xlo xhi 
0.000000e+00 2.000000e+00 xlo xhi 
ITEM: ATOMS id type x y z 
0 0 8.399772e-01 8.109703e-01 6.246509e-01 
1 1 1.323468e+00 4.964584e-01 1.052184e+00 
2 2 6.852560e-01 8.955000e-01 1.658469e+00 
3 3 1.120666e+00 1.306614e+00 9.461449e-01 
ITEM: TIMESTEP 
0 
ITEM: NUMBER OF ATOMS 
4 
ITEM: BOX BOUNDS 
0.000000e+00 2.000000e+00 xlo xhi 
0.000000e+00 2.000000e+00 xlo xhi 
0.000000e+00 2.000000e+00 xlo xhi 
ITEM: ATOMS id type x y z 
0 0 8.306976e-01 8.116045e-01 6.201265e-01 
1 1 1.340521e+00 5.104971e-01 1.031518e+00 
2 2 6.830027e-01 9.010150e-01 1.647487e+00 
3 3 1.100371e+00 1.294344e+00 9.492512e-01 
ITEM: TIMESTEP 
0 
ITEM: NUMBER OF ATOMS 
4 
ITEM: BOX BOUNDS 
0.000000e+00 2.000000e+00 xlo xhi 
0.000000e+00 2.000000e+00 xlo xhi 
0.000000e+00 2.000000e+00 xlo xhi 
ITEM: ATOMS id type x y z 
0 0 8.204629e-01 8.098768e-01 6.151172e-01 
1 1 1.357286e+00 5.239280e-01 1.009477e+00 
2 2 6.809180e-01 9.078240e-01 1.636836e+00 
3 3 1.081913e+00 1.282173e+00 9.539915e-01 
ITEM: TIMESTEP 
0 
ITEM: NUMBER OF ATOMS 
4 
ITEM: BOX BOUNDS 
0.000000e+00 2.000000e+00 xlo xhi 
0.000000e+00 2.000000e+00 xlo xhi 
0.000000e+00 2.000000e+00 xlo xhi 
ITEM: ATOMS id type x y z 
0 0 8.105281e-01 8.059018e-01 6.088145e-01 
1 1 1.373708e+00 5.382419e-01 9.859218e-01 
2 2 6.790006e-01 9.152406e-01 1.626048e+00 
3 3 1.065140e+00 1.269390e+00 9.590143e-01 
ITEM: TIMESTEP 
0 
ITEM: NUMBER OF ATOMS 
4 
ITEM: BOX BOUNDS 
0.000000e+00 2.000000e+00 xlo xhi 
0.000000e+00 2.000000e+00 xlo xhi 
0.000000e+00 2.000000e+00 xlo xhi 
ITEM: ATOMS id type x y z 
0 0 8.018398e-01 8.013078e-01 6.002999e-01 
1 1 1.387296e+00 5.559540e-01 9.621639e-01 
2 2 6.770589e-01 9.217563e-01 1.613860e+00 
3 3 1.051424e+00 1.257816e+00 9.648606e-01 
ITEM: TIMESTEP 
0 
ITEM: NUMBER OF ATOMS 
4 
ITEM: BOX BOUNDS 
0.000000e+00 2.000000e+00 xlo xhi 
0.000000e+00 2.000000e+00 xlo xhi 
0.000000e+00 2.000000e+00 xlo xhi 
ITEM: ATOMS id type x y z 
0 0 7.935629e-01 7.950008e-01 5.915296e-01 
1 1 1.398167e+00 5.753831e-01 9.377884e-01 
2 2 6.767726e-01 9.273452e-01 1.601851e+00 
3 3 1.041310e+00 1.248210e+00 9.727987e-01 
ITEM: TIMESTEP 
0 
ITEM: NUMBER OF ATOMS 
4 
ITEM: BOX BOUNDS 
0.000000e+00 2.000000e+00 xlo xhi 
0.000000e+00 2.000000e+00 xlo xhi 
0.000000e+00 2.000000e+00 xlo xhi 
ITEM: ATOMS id type x y z 
0 0 7.857712e-01 7.868439e-01 5.819242e-01 
1 1 1.403992e+00 5.954639e-01 9.133161e-01 
2 2 6.773806e-01 9.315667e-01 1.588014e+00 
3 3 1.033015e+00 1.239963e+00 9.823594e-01 
ITEM: TIMESTEP 
0 
ITEM: NUMBER OF ATOMS 
4 
ITEM: BOX BOUNDS 
0.000000e+00 2.000000e+00 xlo xhi 
0.000000e+00 2.000000e+00 xlo xhi 
0.000000e+00 2.000000e+00 xlo xhi 
ITEM: ATOMS id type x y z 
0 0 7.776880e-01 7.775124e-01 5.732246e-01 
1 1 1.406097e+00 6.159655e-01 8.894775e-01 
2 2 6.798141e-01 9.338804e-01 1.573727e+00 
3 3 1.024705e+00 1.232326e+00 9.929473e-01 
ITEM: TIMESTEP 
0 
ITEM: NUMBER OF ATOMS 
4 
ITEM: BOX BOUNDS 
0.000000e+00 2.000000e+00 xlo xhi 
0.000000e+00 2.000000e+00 xlo xhi 
0.000000e+00 2.000000e+00 xlo xhi 
ITEM: ATOMS id type x y z 
0 0 7.702544e-01 7.679936e-01 5.654914e-01 
1 1 1.404480e+00 6.369487e-01 8.669528e-01 
2 2 6.848170e-01 9.373867e-01 1.558335e+00 
3 3 1.015499e+00 1.225978e+00 1.003344e+00 
ITEM: TIMESTEP 
0 
ITEM: NUMBER OF ATOMS 
4 
ITEM: BOX BOUNDS 
0.000000e+00 2.000000e+00 xlo xhi 
0.000000e+00 2.000000e+00 xlo xhi 
0.000000e+00 2.000000e+00 xlo xhi 
ITEM: ATOMS id type x y z 
0 0 7.631433e-01 7.600838e-01 5.597279e-01 
1 1 1.399583e+00 6.583916e-01 8.447246e-01 
2 2 6.914769e-01 9.408105e-01 1.540811e+00 
3 3 1.005188e+00 1.219622e+00 1.014415e+00 
ITEM: TIMESTEP 
0 
ITEM: NUMBER OF ATOMS 
4 
ITEM: BOX BOUNDS 
0.000000e+00 2.000000e+00 xlo xhi 
0.000000e+00 2.000000e+00 xlo xhi 
0.000000e+00 2.000000e+00 xlo xhi 
ITEM: ATOMS id type x y z 
0 0 7.556132e-01 7.533240e-01 5.562492e-01 
1 1 1.390541e+00 6.788224e-01 8.213650e-01 
2 2 6.988511e-01 9.446256e-01 1.521262e+00 
3 3 9.948032e-01 1.211989e+00 1.025081e+00 
ITEM: TIMESTEP 
0 
ITEM: NUMBER OF ATOMS 
4 
ITEM: BOX BOUNDS 
0.000000e+00 2.000000e+00 xlo xhi 
0.000000e+00 2.000000e+00 xlo xhi 
0.000000e+00 2.000000e+00 xlo xhi 
ITEM: ATOMS id type x y z 
0 0 7.483288e-01 7.455755e-01 5.557936e-01 
1 1 1.378291e+00 6.992165e-01 7.984477e-01 
2 2 7.049047e-01 9.476156e-01 1.503475e+00 
3 3 9.854789e-01 1.206817e+00 1.034449e+00 
ITEM: TIMESTEP 
0 
ITEM: NUMBER OF ATOMS 
4 
ITEM: BOX BOUNDS 
0.000000e+00 2.000000e+00 xlo xhi 
0.000000e+00 2.000000e+00 xlo xhi 
0.000000e+00 2.000000e+00 xlo xhi 
ITEM: ATOMS id type x y z 
0 0 7.413618e-01 7.376958e-01 5.552290e-01 
1 1 1.367696e+00 7.215033e-01 7.760611e-01 
2 2 7.071262e-01 9.480529e-01 1.490224e+00 
3 3 9.801581e-01 1.203691e+00 1.038713e+00 
ITEM: TIMESTEP 
0 
ITEM: NUMBER OF ATOMS 
4 
ITEM: BOX BOUNDS 
0.000000e+00 2.000000e+00 xlo xhi 
0.000000e+00 2.000000e+00 xlo xhi 
0.000000e+00 2.000000e+00 xlo xhi 
ITEM: ATOMS id type x y z 
0 0 7.321538e-01 7.296070e-01 5.548787e-01 
1 1 1.359142e+00 7.456706e-01 7.522771e-01 
2 2 7.042939e-01 9.432751e-01 1.485747e+00 
3 3 9.800009e-01 1.204742e+00 1.033370e+00 
ITEM: TIMESTEP 
0 
ITEM: NUMBER OF ATOMS 
4 
ITEM: BOX BOUNDS 
0.000000e+00 2.000000e+00 xlo xhi 
0.000000e+00 2.000000e+00 xlo xhi 
0.000000e+00 2.000000e+00 xlo xhi 
ITEM: ATOMS id type x y z 
0 0 7.231769e-01 7.221389e-01 5.546348e-01 
1 1 1.350608e+00 7.675617e-01 7.300688e-01 
2 2 6.960031e-01 9.342458e-01 1.487984e+00 
3 3 9.854917e-01 1.210464e+00 1.019926e+00 
ITEM: TIMESTEP 
0 
ITEM: NUMBER OF ATOMS 
4 
ITEM: BOX BOUNDS 
0.000000e+00 2.000000e+00 xlo xhi 
0.000000e+00 2.000000e+00 xlo xhi 
0.000000e+00 2.000000e+00 xlo xhi 
ITEM: ATOMS id type x y z 
0 0 7.126145e-01 7.143728e-01 5.547813e-01 
1 1 1.344215e+00 7.890550e-01 7.086328e-01 
2 2 6.863301e-01 9.232053e-01 1.492996e+00 
3 3 9.912253e-01 1.217171e+00 1.003656e+00 
ITEM: TIMESTEP 
0 
ITEM: NUMBER OF ATOMS 
4 
ITEM: BOX BOUNDS 
0.000000e+00 2.000000e+00 xlo xhi 
0.000000e+00 2.000000e+00 xlo xhi 
0.000000e+00 2.000000e+00 xlo xhi 
ITEM: ATOMS id type x y z 
0 0 6.983311e-01 7.084116e-01 5.547735e-01 
1 1 1.341765e+00 8.090371e-01 6.878086e-01 
2 2 6.770066e-01 9.137602e-01 1.497027e+00 
3 3 9.954842e-01 1.224577e+00 9.888344e-01 
ITEM: TIMESTEP 
0 
ITEM: NUMBER OF ATOMS 
4 
ITEM: BOX BOUNDS 
0.000000e+00 2.000000e+00 xlo xhi 
0.000000e+00 2.000000e+00 xlo xhi 
0.000000e+00 2.000000e+00 xlo xhi 
ITEM: ATOMS id type x y z 
0 0 6.824098e-01 7.037711e-01 5.525120e-01 
1 1 1.342029e+00 8.248334e-01 6.657963e-01 
2 2 6.705439e-01 9.059297e-01 1.498687e+00 
3 3 9.979735e-01 1.234768e+00 9.770579e-01 
ITEM: TIMESTEP 
0 
ITEM: NUMBER OF ATOMS 
4 
ITEM: BOX BOUNDS 
0.000000e+00 2.000000e+00 xlo xhi 
0.000000e+00 2.000000e+00 xlo xhi 
0.000000e+00 2.000000e+00 xlo xhi 
ITEM: ATOMS id type x y z 
0 0 6.683862e-01 7.011432e-01 5.510733e-01 
1 1 1.343746e+00 8.393470e-01 6.442621e-01 