ITEM: TIMESTEP 
0 
ITEM: NUMBER OF ATOMS 
4 
ITEM: BOX BOUNDS 
0.000000e+00 2.000000e+00 xlo xhi 
0.000000e+00 2.000000e+00 xlo xhi 
0.000000e+00 2.000000e+00 xlo xhi 
ITEM: ATOMS id type x y z 
0 0 6.327931e-01 9.041049e-01 5.325870e-01 
1 1 7.049285e-01 1.356757e-01 1.253230e+00 
2 2 1.383471e+00 1.290441e+00 1.452359e+00 
3 3 1.636178e+00 4.918597e-01 1.521887e-01 
ITEM: TIMESTEP 
0 
ITEM: NUMBER OF ATOMS 
4 
ITEM: BOX BOUNDS 
0.000000e+00 2.000000e+00 xlo xhi 
0.000000e+00 2.000000e+00 xlo xhi 
0.000000e+00 2.000000e+00 xlo xhi 
ITEM: ATOMS id type x y z 
0 0 6.343575e-01 9.021086e-01 5.312582e-01 
1 1 7.047619e-01 1.363125e-01 1.253788e+00 
2 2 1.382176e+00 1.291238e+00 1.453050e+00 
3 3 1.636025e+00 4.922712e-01 1.521022e-01 
ITEM: TIMESTEP 
0 
ITEM: NUMBER OF ATOMS 
4 
ITEM: BOX BOUNDS 
0.000000e+00 2.000000e+00 xlo xhi 
0.000000e+00 2.000000e+00 xlo xhi 
0.000000e+00 2.000000e+00 xlo xhi 
ITEM: ATOMS id type x y z 
0 0 6.509507e-01 8.806598e-01 5.177981e-01 
1 1 7.044688e-01 1.421126e-01 1.259417e+00 
2 2 1.368931e+00 1.299000e+00 1.460968e+00 
3 3 1.632990e+00 4.970137e-01 1.518817e-01 
ITEM: TIMESTEP 
0 
ITEM: NUMBER OF ATOMS 
4 
ITEM: BOX BOUNDS 
0.000000e+00 2.000000e+00 xlo xhi 
0.000000e+00 2.000000e+00 xlo xhi 
0.000000e+00 2.000000e+00 xlo xhi 
ITEM: ATOMS id type x y z 
0 0 6.712714e-01 8.600800e-01 5.069011e-01 
1 1 7.057321e-01 1.491187e-01 1.263771e+00 
2 2 1.355599e+00 1.307047e+00 1.468953e+00 
3 3 1.625124e+00 5.031511e-01 1.506688e-01 
ITEM: TIMESTEP 
0 
ITEM: NUMBER OF ATOMS 
4 
ITEM: BOX BOUNDS 
0.000000e+00 2.000000e+00 xlo xhi 
0.000000e+00 2.000000e+00 xlo xhi 
0.000000e+00 2.000000e+00 xlo xhi 
ITEM: ATOMS id type x y z 
0 0 6.941751e-01 8.412565e-01 4.992211e-01 
1 1 7.103496e-01 1.549681e-01 1.265710e+00 
2 2 1.340576e+00 1.315080e+00 1.476094e+00 
3 3 1.613443e+00 5.121221e-01 1.476680e-01 
ITEM: TIMESTEP 
0 
ITEM: NUMBER OF ATOMS 
4 
ITEM: BOX BOUNDS 
0.000000e+00 2.000000e+00 xlo xhi 
0.000000e+00 2.000000e+00 xlo xhi 
0.000000e+00 2.000000e+00 xlo xhi 
ITEM: ATOMS id type x y z 
0 0 7.184068e-01 8.226953e-01 4.932076e-01 
1 1 7.169996e-01 1.611928e-01 1.265833e+00 
2 2 1.324097e+00 1.324178e+00 1.482411e+00 
3 3 1.599935e+00 5.227198e-01 1.430575e-01 
ITEM: TIMESTEP 
0 
ITEM: NUMBER OF ATOMS 
4 
ITEM: BOX BOUNDS 
0.000000e+00 2.000000e+00 xlo xhi 
0.000000e+00 2.000000e+00 xlo xhi 
0.000000e+00 2.000000e+00 xlo xhi 
ITEM: ATOMS id type x y z 
0 0 7.461854e-01 8.047700e-01 4.896619e-01 
1 1 7.270171e-01 1.657225e-01 1.265873e+00 
2 2 1.305861e+00 1.331996e+00 1.488299e+00 
3 3 1.584684e+00 5.316327e-01 1.355611e-01 
ITEM: TIMESTEP 
0 
ITEM: NUMBER OF ATOMS 
4 
ITEM: BOX BOUNDS 
0.000000e+00 2.000000e+00 xlo xhi 
0.000000e+00 2.000000e+00 xlo xhi 
0.000000e+00 2.000000e+00 xlo xhi 
ITEM: ATOMS id type x y z 
0 0 7.742661e-01 7.887520e-01 4.878611e-01 
1 1 7.377795e-01 1.693597e-01 1.268990e+00 
2 2 1.285416e+00 1.338254e+00 1.493494e+00 
3 3 1.569214e+00 5.393408e-01 1.267600e-01 
ITEM: TIMESTEP 
0 
ITEM: NUMBER OF ATOMS 
4 
ITEM: BOX BOUNDS 
0.000000e+00 2.000000e+00 xlo xhi 
0.000000e+00 2.000000e+00 xlo xhi 
0.000000e+00 2.000000e+00 xlo xhi 
ITEM: ATOMS id type x y z 
0 0 8.031549e-01 7.753323e-01 4.834896e-01 
1 1 7.495347e-01 1.738014e-01 1.273153e+00 
2 2 1.264779e+00 1.342529e+00 1.500756e+00 
3 3 1.553261e+00 5.477017e-01 1.159208e-01 
ITEM: TIMESTEP 
0 
ITEM: NUMBER OF ATOMS 
4 
ITEM: BOX BOUNDS 
0.000000e+00 2.000000e+00 xlo xhi 
0.000000e+00 2.000000e+00 xlo xhi 
0.000000e+00 2.000000e+00 xlo xhi 
ITEM: ATOMS id type x y z 
0 0 8.325229e-01 7.649910e-01 4.768625e-01 
1 1 7.604203e-01 1.800116e-01 1.280101e+00 
2 2 1.243728e+00 1.343591e+00 1.510139e+00 
3 3 1.536235e+00 5.572568e-01 1.041888e-01 
ITEM: TIMESTEP 
0 
ITEM: NUMBER OF ATOMS 
4 
ITEM: BOX BOUNDS 
0.000000e+00 2.000000e+00 xlo xhi 
0.000000e+00 2.000000e+00 xlo xhi 
0.000000e+00 2.000000e+00 xlo xhi 
ITEM: ATOMS id type x y z 
0 0 8.618059e-01 7.592787e-01 4.685032e-01 
1 1 7.706395e-01 1.854676e-01 1.288645e+00 
2 2 1.223608e+00 1.343446e+00 1.521009e+00 
3 3 1.517493e+00 5.679026e-01 9.151527e-02 
ITEM: TIMESTEP 
0 
ITEM: NUMBER OF ATOMS 
4 
ITEM: BOX BOUNDS 
0.000000e+00 2.000000e+00 xlo xhi 
0.000000e+00 2.000000e+00 xlo xhi 
0.000000e+00 2.000000e+00 xlo xhi 
ITEM: ATOMS id type x y z 
0 0 8.891655e-01 7.552351e-01 4.569329e-01 
1 1 7.821045e-01 1.912705e-01 1.298283e+00 
2 2 1.203002e+00 1.342351e+00 1.534934e+00 
3 3 1.497397e+00 5.796218e-01 7.727028e-02 
ITEM: TIMESTEP 
0 
ITEM: NUMBER OF ATOMS 
4 
ITEM: BOX BOUNDS 
0.000000e+00 2.000000e+00 xlo xhi 
0.000000e+00 2.000000e+00 xlo xhi 
0.000000e+00 2.000000e+00 xlo xhi 
ITEM: ATOMS id type x y z 
0 0 9.154106e-01 7.514865e-01 4.457677e-01 
1 1 7.949944e-01 1.989922e-01 1.309111e+00 
2 2 1.182612e+00 1.341591e+00 1.549088e+00 
3 3 1.475474e+00 5.914448e-01 5.952948e-02 
ITEM: TIMESTEP 
0 
ITEM: NUMBER OF ATOMS 
4 
ITEM: BOX BOUNDS 
0.000000e+00 2.000000e+00 xlo xhi 
0.000000e+00 2.000000e+00 xlo xhi 
0.000000e+00 2.000000e+00 xlo xhi 
ITEM: ATOMS id type x y z 
0 0 9.427417e-01 7.480423e-01 4.341420e-01 
1 1 8.100036e-01 2.090850e-01 1.319451e+00 
2 2 1.162027e+00 1.338358e+00 1.564726e+00 
3 3 1.451766e+00 6.047824e-01 3.809505e-02 
ITEM: TIMESTEP 
0 
ITEM: NUMBER OF ATOMS 
4 
ITEM: BOX BOUNDS 
0.000000e+00 2.000000e+00 xlo xhi 
0.000000e+00 2.000000e+00 xlo xhi 
0.000000e+00 2.000000e+00 xlo xhi 
ITEM: ATOMS id type x y z 
0 0 9.718927e-01 7.428460e-01 4.225506e-01 
1 1 8.258705e-01 2.214859e-01 1.328239e+00 
2 2 1.142462e+00 1.334549e+00 1.582364e+00 
3 3 1.428254e+00 6.180829e-01 1.659026e-02 
ITEM: TIMESTEP 
0 
ITEM: NUMBER OF ATOMS 
4 
ITEM: BOX BOUNDS 
0.000000e+00 2.000000e+00 xlo xhi 
0.000000e+00 2.000000e+00 xlo xhi 
0.000000e+00 2.000000e+00 xlo xhi 
ITEM: ATOMS id type x y z 
0 0 1.003825e+00 7.368709e-01 4.093582e-01 
1 1 8.418633e-01 2.342565e-01 1.333219e+00 
2 2 1.122393e+00 1.330935e+00 1.602299e+00 
3 3 1.404126e+00 6.308879e-01 1.999583e+00 
ITEM: TIMESTEP 
0 
ITEM: NUMBER OF ATOMS 
4 
ITEM: BOX BOUNDS 
0.000000e+00 2.000000e+00 xlo xhi 
0.000000e+00 2.000000e+00 xlo xhi 
0.000000e+00 2.000000e+00 xlo xhi 
ITEM: ATOMS id type x y z 
0 0 1.047004e+00 7.266070e-01 3.858239e-01 
1 1 8.577639e-01 2.460690e-01 1.335217e+00 
2 2 1.100383e+00 1.327822e+00 1.623017e+00 
3 3 1.366478e+00 6.469084e-01 1.995337e+00 
ITEM: TIMESTEP 
0 
ITEM: NUMBER OF ATOMS 
4 
ITEM: BOX BOUNDS 
0.000000e+00 2.000000e+00 xlo xhi 
0.000000e+00 2.000000e+00 xlo xhi 
0.000000e+00 2.000000e+00 xlo xhi 
ITEM: ATOMS id type x y z 
0 0 8.259386e-01 1.687999e+00 5.236166e-01 
1 1 8.754966e-01 2.316757e-01 1.309675e+00 
2 2 1.080438e+00 1.325481e+00 1.643314e+00 
3 3 1.588593e+00 1.716703e+00 1.858102e+00 
ITEM: TIMESTEP 
0 
ITEM: NUMBER OF ATOMS 
4 
ITEM: BOX BOUNDS 
0.000000e+00 2.000000e+00 xlo xhi 
0.000000e+00 2.000000e+00 xlo xhi 
0.000000e+00 2.000000e+00 xlo xhi 
ITEM: ATOMS id type x y z 
0 0 1.035611e-01 8.221975e-01 8.177526e-01 
1 1 3.872735e-01 4.683950e-01 1.435675e+00 
2 2 1.063641e+00 1.322819e+00 1.660696e+00 
3 3 8.183887e-01 3.636305e-01 1.414335e+00 
ITEM: TIMESTEP 
0 
ITEM: NUMBER OF ATOMS 
4 
ITEM: BOX BOUNDS 
0.000000e+00 2.000000e+00 xlo xhi 
0.000000e+00 2.000000e+00 xlo xhi 
0.000000e+00 2.000000e+00 xlo xhi 
ITEM: ATOMS id type x y z 
0 0 1.281556e+00 1.458314e+00 3.648842e-01 
1 1 2.954802e-01 7.575827e-01 1.671794e+00 
2 2 8.621705e-01 1.511167e+00 3.244876e-01 
3 3 1.934722e+00 1.261520e+00 9.632169e-01 
ITEM: TIMESTEP 
0 
ITEM: NUMBER OF ATOMS 
4 
ITEM: BOX BOUNDS 
0.000000e+00 2.000000e+00 xlo xhi 
0.000000e+00 2.000000e+00 xlo xhi 
0.000000e+00 2.000000e+00 xlo xhi 
ITEM: ATOMS id type x y z 
0 0 1.790169e+00 6.441899e-02 1.066728e-02 
1 1 9.427164e-01 1.175764e+00 1.989735e+00 
2 2 1.385017e+00 1.477090e+00 1.334083e-01 
3 3 2.579197e-01 2.866565e-01 1.185414e+00 
ITEM: TIMESTEP 
0 
ITEM: NUMBER OF ATOMS 
4 
ITEM: BOX BOUNDS 
0.000000e+00 2.000000e+00 xlo xhi 
0.000000e+00 2.000000e+00 xlo xhi 
0.000000e+00 2.000000e+00 xlo xhi 
ITEM: ATOMS id type x y z 
0 0 1.762929e+00 2.867429e-03 1.071022e+00 
1 1 9.802953e-01 4.810375e-01 1.981509e-01 
2 2 3.227491e-01 7.098150e-01 4.296235e-01 
3 3 1.312719e+00 1.826529e+00 1.613348e+00 
ITEM: TIMESTEP 
0 
ITEM: NUMBER OF ATOMS 
4 
ITEM: BOX BOUNDS 
0.000000e+00 2.000000e+00 xlo xhi 
0.000000e+00 2.000000e+00 xlo xhi 
0.000000e+00 2.000000e+00 xlo xhi 
ITEM: ATOMS id type x y z 
0 0 1.310625e+00 1.255097e-03 1.928507e+00 
1 1 8.743017e-01 1.734630e+00 4.088373e-01 
2 2 6.576526e-01 4.274080e-01 2.290075e-02 
3 3 1.539252e+00 8.747053e-01 9.420236e-01 
ITEM: TIMESTEP 
0 
ITEM: NUMBER OF ATOMS 
4 
ITEM: BOX BOUNDS 
0.000000e+00 2.000000e+00 xlo xhi 
0.000000e+00 2.000000e+00 xlo xhi 
0.000000e+00 2.000000e+00 xlo xhi 
ITEM: ATOMS id type x y z 
0 0 1.818648e+00 1.692054e+00 1.426451e+00 
1 1 9.501328e-01 1.836009e+00 1.466271e-01 
2 2 5.229723e-01 1.625565e+00 1.327255e+00 
3 3 1.094415e+00 1.904060e+00 3.929240e-01 
ITEM: TIMESTEP 
0 
ITEM: NUMBER OF ATOMS 
4 
ITEM: BOX BOUNDS 
0.000000e+00 2.000000e+00 xlo xhi 
0.000000e+00 2.000000e+00 xlo xhi 
0.000000e+00 2.000000e+00 xlo xhi 
ITEM: ATOMS id type x y z 
0 0 1.407036e+00 1.001764e+00 1.437839e+00 
1 1 1.428730e+00 9.584891e-02 2.340218e-01 
2 2 4.096689e-01 9.373394e-01 1.624178e+00 
3 3 1.146670e+00 1.042423e+00 1.987018e+00 
ITEM: TIMESTEP 
0 
ITEM: NUMBER OF ATOMS 
4 
ITEM: BOX BOUNDS 
0.000000e+00 2.000000e+00 xlo xhi 
0.000000e+00 2.000000e+00 xlo xhi 
0.000000e+00 2.000000e+00 xlo xhi 
ITEM: ATOMS id type x y z 
0 0 1.823453e-01 1.920219e+00 1.795775e+00 
1 1 7.497582e-01 1.752389e+00 1.536991e+00 
2 2 1.156170e+00 1.566129e+00 1.740022e-01 
3 3 3.120486e-01 1.855971e+00 1.766119e+00 
ITEM: TIMESTEP 
0 
ITEM: NUMBER OF ATOMS 
4 
ITEM: BOX BOUNDS 
0.000000e+00 2.000000e+00 xlo xhi 
0.000000e+00 2.000000e+00 xlo xhi 
0.000000e+00 2.000000e+00 xlo xhi 
ITEM: ATOMS id type x y z 
0 0 1.381709e+00 1.222327e+00 9.395747e-01 
1 1 9.422426e-01 3.555424e-01 1.732975e-01 
2 2 1.223255e+00 7.071253e-01 3.168442e-01 
3 3 8.604813e-01 8.270644e-01 1.830900e+00 
ITEM: TIMESTEP 
0 
ITEM: NUMBER OF ATOMS 
4 
ITEM: BOX BOUNDS 
0.000000e+00 2.000000e+00 xlo xhi 
0.000000e+00 2.000000e+00 xlo xhi 
0.000000e+00 2.000000e+00 xlo xhi 
ITEM: ATOMS id type x y z 
0 0 1.699851e+00 3.008348e-01 5.621018e-01 
1 1 5.262847e-01 1.538433e+00 7.308658e-01 
2 2 1.989594e+00 1.708809e+00 1.132307e+00 
3 3 1.989529e-01 1.583201e+00 8.201412e-01 
ITEM: TIMESTEP 
0 
ITEM: NUMBER OF ATOMS 
4 
ITEM: BOX BOUNDS 
0.000000e+00 2.000000e+00 xlo xhi 
0.000000e+00 2.000000e+00 xlo xhi 
0.000000e+00 2.000000e+00 xlo xhi 
ITEM: ATOMS id type x y z 
0 0 1.642703e+00 8.249401e-01 3.989819e-01 
1 1 9.320105e-01 7.341613e-01 7.280349e-01 
2 2 7.226619e-01 1.917291e+00 1.959835e+00 
3 3 1.119099e+00 1.669703e+00 1.426011e-01 
ITEM: TIMESTEP 
0 
ITEM: NUMBER OF ATOMS 
4 
ITEM: BOX BOUNDS 
0.000000e+00 2.000000e+00 xlo xhi 
0.000000e+00 2.000000e+00 xlo xhi 
0.000000e+00 2.000000e+00 xlo xhi 
ITEM: ATOMS id type x y z 
0 0 2.408297e-01 6.564565e-01 7.300693e-01 
1 1 1.501706e+00 1.170475e+00 9.529842e-01 
2 2 2.159011e-01 2.287659e-01 3.677578e-01 
3 3 4.600822e-01 1.103017e+00 1.158994e+00 
ITEM: TIMESTEP 
0 
ITEM: NUMBER OF ATOMS 
4 
ITEM: BOX BOUNDS 
0.000000e+00 2.000000e+00 xlo xhi 
0.000000e+00 2.000000e+00 xlo xhi 
0.000000e+00 2.000000e+00 xlo xhi 
ITEM: ATOMS id type x y z 
0 0 1.271140e-01 1.568308e+00 1.824134e+00 
1 1 6.868174e-01 2.173978e-01 1.469350e+00 
2 2 7.077093e-01 5.310292e-01 1.470914e+00 
3 3 8.964295e-01 8.533951e-01 4.283356e-01 
ITEM: TIMESTEP 
0 
ITEM: NUMBER OF ATOMS 
4 
ITEM: BOX BOUNDS 
0.000000e+00 2.000000e+00 xlo xhi 
0.000000e+00 2.000000e+00 xlo xhi 
0.000000e+00 2.000000e+00 xlo xhi 
ITEM: ATOMS id type x y z 
0 0 1.504378e+00 1.671099e+00 1.957177e+00 
1 1 1.573755e+00 5.574130e-01 1.272825e+00 
2 2 5.860347e-01 7.879759e-01 9.868487e-02 
3 3 7.535749e-01 1.656733e-01 1.846576e+00 
ITEM: TIMESTEP 
0 
ITEM: NUMBER OF ATOMS 
4 
ITEM: BOX BOUNDS 
0.000000e+00 2.000000e+00 xlo xhi 
0.000000e+00 2.000000e+00 xlo xhi 
0.000000e+00 2.000000e+00 xlo xhi 
ITEM: ATOMS id type x y z 
0 0 1.747443e+00 4.729824e-01 1.353459e+00 
1 1 1.349005e+00 1.767407e+00 7.445049e-02 
2 2 1.805009e+00 7.683238e-01 1.446031e+00 
3 3 1.513897e+00 1.892481e-01 2.845308e-01 
ITEM: TIMESTEP 
0 
ITEM: NUMBER OF ATOMS 
4 
ITEM: BOX BOUNDS 
0.000000e+00 2.000000e+00 xlo xhi 
0.000000e+00 2.000000e+00 xlo xhi 
0.000000e+00 2.000000e+00 xlo xhi 
ITEM: ATOMS id type x y z 
0 0 3.011382e-01 1.203709e+00 1.975540e+00 
1 1 1.018962e-02 1.671629e+00 6.244812e-01 
2 2 1.418928e+00 4.520479e-01 1.023918e+00 
3 3 6.798205e-01 1.884123e+00 1.516695e+00 
ITEM: TIMESTEP 
0 
ITEM: NUMBER OF ATOMS 
4 
ITEM: BOX BOUNDS 
0.000000e+00 2.000000e+00 xlo xhi 
0.000000e+00 2.000000e+00 xlo xhi 
0.000000e+00 2.000000e+00 xlo xhi 
ITEM: ATOMS id type x y z 
0 0 1.599600e+00 1.594765e+00 4.961148e-01 
1 1 1.653752e-01 6.030736e-01 5.367694e-01 
2 2 1.968925e+00 8.963432e-01 7.786732e-01 
3 3 6.670200e-01 1.290460e-01 1.310377e+00 
ITEM: TIMESTEP 
0 
ITEM: NUMBER OF ATOMS 
4 
ITEM: BOX BOUNDS 
0.000000e+00 2.000000e+00 xlo xhi 
0.000000e+00 2.000000e+00 xlo xhi 
0.000000e+00 2.000000e+00 xlo xhi 
ITEM: ATOMS id type x y z 
0 0 1.419537e+00 1.399462e+00 1.394379e+00 
1 1 1.020428e+00 6.977614e-01 3.161315e-01 
2 2 1.349137e+00 1.539297e+00 4.397602e-01 
3 3 6.002382e-01 1.595232e+00 9.524439e-01 
ITEM: TIMESTEP 
0 
ITEM: NUMBER OF ATOMS 
4 
ITEM: BOX BOUNDS 
0.000000e+00 2.000000e+00 xlo xhi 
0.000000e+00 2.000000e+00 xlo xhi 
0.000000e+00 2.000000e+00 xlo xhi 
ITEM: ATOMS id type x y z 
0 0 7.426625e-01 6.830331e-01 2.347245e-01 
1 1 6.887493e-01 5.216323e-01 9.817449e-01 
2 2 1.204857e+00 1.506425e+00 1.940350e+00 
3 3 1.741290e+00 5.282802e-01 1.924386e+00 
ITEM: TIMESTEP 
0 
ITEM: NUMBER OF ATOMS 
4 
ITEM: BOX BOUNDS 
0.000000e+00 2.000000e+00 xlo xhi 
0.000000e+00 2.000000e+00 xlo xhi 
0.000000e+00 2.000000e+00 xlo xhi 
ITEM: ATOMS id type x y z 
0 0 1.544454e+00 1.953994e+00 4.002155e-01 
1 1 9.423129e-01 4.268897e-01 6.096863e-01 
2 2 1.593551e+00 4.686008e-01 1.001121e+00 
3 3 2.884908e-01 4.027023e-01 1.047406e+00 
ITEM: TIMESTEP 
0 
ITEM: NUMBER OF ATOMS 
4 
ITEM: BOX BOUNDS 
0.000000e+00 2.000000e+00 xlo xhi 
0.000000e+00 2.000000e+00 xlo xhi 
0.000000e+00 2.000000e+00 xlo xhi 
ITEM: ATOMS id type x y z 
0 0 1.774605e+00 4.557386e-01 4.724866e-01 
1 1 5.143768e-02 1.638011e+00 1.564416e+00 
2 2 5.635713e-01 4.262277e-01 9.802279e-02 
3 3 1.970979e+00 7.470800e-01 9.004084e-01 
ITEM: TIMESTEP 
0 
ITEM: NUMBER OF ATOMS 
4 
ITEM: BOX BOUNDS 
0.000000e+00 2.000000e+00 xlo xhi 
0.000000e+00 2.000000e+00 xlo xhi 
0.000000e+00 2.000000e+00 xlo xhi 
ITEM: ATOMS id type x y z 
0 0 4.987184e-01 1.803356e+00 3.892965e-01 
1 1 1.259814e+00 5.762966e-01 5.193064e-01 
2 2 1.472116e+00 9.080645e-01 1.618231e+00 
3 3 1.121150e+00 1.995421e+00 4.839399e-01 
ITEM: TIMESTEP 
0 
ITEM: NUMBER OF ATOMS 
4 
ITEM: BOX BOUNDS 
0.000000e+00 2.000000e+00 xlo xhi 
0.000000e+00 2.000000e+00 xlo xhi 
0.000000e+00 2.000000e+00 xlo xhi 
ITEM: ATOMS id type x y z 
0 0 8.134794e-01 9.943346e-01 1.350726e+00 
1 1 5.415213e-01 9.548680e-01 1.932509e-01 
2 2 1.708241e+00 3.135778e-01 4.999128e-03 
3 3 1.277456e+00 1.034621e+00 1.435564e+00 
ITEM: TIMESTEP 
0 
ITEM: NUMBER OF ATOMS 
4 
ITEM: BOX BOUNDS 
0.000000e+00 2.000000e+00 xlo xhi 
0.000000e+00 2.000000e+00 xlo xhi 
0.000000e+00 2.000000e+00 xlo xhi 
ITEM: ATOMS id type x y z 
0 0 6.082735e-01 2.324307e-01 8.511482e-01 
1 1 1.851937e+00 6.937375e-01 1.088066e+00 
2 2 1.633953e+00 1.109652e-01 5.406284e-01 
3 3 2.356282e-01 2.749370e-01 4.794839e-01 
ITEM: TIMESTEP 
0 
ITEM: NUMBER OF ATOMS 
4 
ITEM: BOX BOUNDS 
0.000000e+00 2.000000e+00 xlo xhi 
0.000000e+00 2.000000e+00 xlo xhi 
0.000000e+00 2.000000e+00 xlo xhi 
ITEM: ATOMS id type x y z 
0 0 1.690331e+00 6.621239e-01 1.738081e+00 
1 1 1.021186e+00 2.855084e-01 1.246083e+00 
2 2 1.490598e+00 9.374833e-01 1.749413e+00 
3 3 1.160275e-01 1.442783e+00 2.043571e-01 
ITEM: TIMESTEP 
0 
ITEM: NUMBER OF ATOMS 
4 
ITEM: BOX BOUNDS 
0.000000e+00 2.000000e+00 xlo xhi 
0.000000e+00 2.000000e+00 xlo xhi 
0.000000e+00 2.000000e+00 xlo xhi 
ITEM: ATOMS id type x y z 
0 0 1.302906e+00 1.810418e+00 1.966852e+00 
1 1 5.705242e-01 1.619875e+00 1.762327e+00 
2 2 1.239751e+00 1.603721e+00 9.870614e-01 
3 3 1.269068e+00 3.063068e-01 2.012351e-01 
ITEM: TIMESTEP 
0 
ITEM: NUMBER OF ATOMS 
4 
ITEM: BOX BOUNDS 
0.000000e+00 2.000000e+00 xlo xhi 
0.000000e+00 2.000000e+00 xlo xhi 
0.000000e+00 2.000000e+00 xlo xhi 
ITEM: ATOMS id type x y z 
0 0 1.103419e+00 1.137688e+00 1.915397e+00 
1 1 9.841825e-01 1.214456e+00 5.370511e-01 
2 2 4.929385e-01 1.039641e+00 9.039125e-01 
3 3 1.687660e-01 1.960708e+00 1.540835e+00 
ITEM: TIMESTEP 
0 
ITEM: NUMBER OF ATOMS 
4 
ITEM: BOX BOUNDS 
0.000000e+00 2.000000e+00 xlo xhi 
0.000000e+00 2.000000e+00 xlo xhi 
0.000000e+00 2.000000e+00 xlo xhi 
ITEM: ATOMS id type x y z 
0 0 3.261370e-01 4.373298e-01 7.604416e-01 
1 1 2.905143e-01 5.858891e-01 1.931288e+00 
2 2 1.137848e+00 1.862517e+00 4.209156e-02 
3 3 1.355851e+00 4.845521e-01 1.424325e-01 
ITEM: TIMESTEP 
0 
ITEM: NUMBER OF ATOMS 
4 
ITEM: BOX BOUNDS 
0.000000e+00 2.000000e+00 xlo xhi 
0.000000e+00 2.000000e+00 xlo xhi 
0.000000e+00 2.000000e+00 xlo xhi 
ITEM: ATOMS id type x y z 
0 0 1.851762e-01 7.318580e-01 5.026886e-01 
1 1 1.092121e+00 1.788420e+00 1.805463e+00 
2 2 6.923789e-01 8.717080e-01 2.124108e-01 
3 3 1.495004e+00 1.995246e+00 3.340869e-01 
ITEM: TIMESTEP 
0 
ITEM: NUMBER OF ATOMS 
4 
ITEM: BOX BOUNDS 
0.000000e+00 2.000000e+00 xlo xhi 
0.000000e+00 2.000000e+00 xlo xhi 
0.000000e+00 2.000000e+00 xlo xhi 
ITEM: ATOMS id type x y z 
0 0 1.914390e+00 7.852689e-02 8.998350e-01 
1 1 1.602371e+00 1.018443e+00 6.279538e-01 
2 2 1.054968e+00 1.594918e+00 7.028358e-01 
3 3 1.241420e+00 7.074412e-01 6.004569e-01 
ITEM: TIMESTEP 
0 
ITEM: NUMBER OF ATOMS 
4 
ITEM: BOX BOUNDS 
0.000000e+00 2.000000e+00 xlo xhi 
0.000000e+00 2.000000e+00 xlo xhi 
0.000000e+00 2.000000e+00 xlo xhi 
ITEM: ATOMS id type x y z 
0 0 1.013876e-01 1.366552e+00 1.074912e+00 
1 1 5.742913e-01 1.059241e-02 1.224641e+00 
2 2 8.535558e-01 2.721693e-01 2.258561e-01 
3 3 6.294204e-01 1.760606e+00 2.844740e-01 
ITEM: TIMESTEP 
0 
ITEM: NUMBER OF ATOMS 
4 
ITEM: BOX BOUNDS 
0.000000e+00 2.000000e+00 xlo xhi 
0.000000e+00 2.000000e+00 xlo xhi 
0.000000e+00 2.000000e+00 xlo xhi 
ITEM: ATOMS id type x y z 
0 0 2.323112e-01 1.088870e+00 1.708042e+00 
1 1 1.730882e+00 9.158256e-01 6.154936e-01 
2 2 9.397190e-01 1.381713e+00 1.134568e+00 
3 3 1.620768e+00 5.821133e-02 1.308892e+00 
ITEM: TIMESTEP 
0 
ITEM: NUMBER OF ATOMS 
4 
ITEM: BOX BOUNDS 
0.000000e+00 2.000000e+00 xlo xhi 
0.000000e+00 2.000000e+00 xlo xhi 
0.000000e+00 2.000000e+00 xlo xhi 
ITEM: ATOMS id type x y z 
0 0 1.381969e+00 1.636744e+00 1.058480e+00 
1 1 1.606396e+00 1.337909e+00 1.675718e+00 
2 2 1.897972e+00 1.070463e+00 1.664976e-01 
3 3 1.997196e+00 1.435853e+00 1.816235e+00 
ITEM: TIMESTEP 
0 
ITEM: NUMBER OF ATOMS 
4 
ITEM: BOX BOUNDS 
0.000000e+00 2.000000e+00 xlo xhi 
0.000000e+00 2.000000e+00 xlo xhi 
0.000000e+00 2.000000e+00 xlo xhi 
ITEM: ATOMS id type x y z 
0 0 1.386781e+00 1.270688e+00 8.235980e-01 
1 1 7.141058e-01 1.283325e+00 2.618602e-01 
2 2 3.917433e-01 1.719699e+00 1.272732e+00 
3 3 7.460600e-01 1.241059e+00 3.078129e-01 
ITEM: TIMESTEP 
0 
ITEM: NUMBER OF ATOMS 
4 
ITEM: BOX BOUNDS 
0.000000e+00 2.000000e+00 xlo xhi 
0.000000e+00 2.000000e+00 xlo xhi 
0.000000e+00 2.000000e+00 xlo xhi 
ITEM: ATOMS id type x y z 
0 0 7.928084e-01 1.551573e+00 1.752553e+00 
1 1 1.064766e+00 7.009757e-01 1.556430e+00 
2 2 9.777640e-03 8.507329e-02 9.986011e-01 
3 3 1.723296e+00 1.212406e+00 3.110756e-01 
ITEM: TIMESTEP 
0 
ITEM: NUMBER OF ATOMS 
4 
ITEM: BOX BOUNDS 
0.000000e+00 2.000000e+00 xlo xhi 
0.000000e+00 2.000000e+00 xlo xhi 
0.000000e+00 2.000000e+00 xlo xhi 
ITEM: ATOMS id type x y z 
0 0 4.922490e-01 1.312670e+00 1.858535e+00 
1 1 3.232801e-01 1.214464e+00 1.036645e+00 
2 2 4.671573e-01 7.267778e-02 3.516914e-02 
3 3 6.517946e-01 9.862016e-01 1.636831e+00 
ITEM: TIMESTEP 
0 
ITEM: NUMBER OF ATOMS 
4 
ITEM: BOX BOUNDS 
0.000000e+00 2.000000e+00 xlo xhi 
0.000000e+00 2.000000e+00 xlo xhi 
0.000000e+00 2.000000e+00 xlo xhi 
ITEM: ATOMS id type x y z 
0 0 1.948515e-01 5.827529e-01 1.328115e+00 
1 1 1.129580e+00 6.063887e-01 1.020513e-01 
2 2 7.005355e-01 1.561460e+00 1.488722e+00 
3 3 2.479650e-01 8.722272e-01 1.594245e+00 
ITEM: TIMESTEP 
0 
ITEM: NUMBER OF ATOMS 
4 
ITEM: BOX BOUNDS 
0.000000e+00 2.000000e+00 xlo xhi 
0.000000e+00 2.000000e+00 xlo xhi 
0.000000e+00 2.000000e+00 xlo xhi 
ITEM: ATOMS id type x y z 
0 0 1.703765e+00 7.257290e-01 9.676399e-01 
1 1 7.896735e-02 1.271606e+00 1.557544e+00 
2 2 1.618989e+00 1.589677e+00 1.891073e+00 
3 3 1.204584e+00 7.184733e-02 4.325047e-02 
ITEM: TIMESTEP 
0 
ITEM: NUMBER OF ATOMS 
4 
ITEM: BOX BOUNDS 
0.000000e+00 2.000000e+00 xlo xhi 
0.000000e+00 2.000000e+00 xlo xhi 
0.000000e+00 2.000000e+00 xlo xhi 
ITEM: ATOMS id type x y z 
0 0 1.810221e+00 1.048485e+00 1.313053e+00 
1 1 1.145095e+00 8.303614e-01 1.843847e+00 
2 2 1.050709e+00 7.983573e-01 1.889362e+00 
3 3 9.265121e-01 1.016612e+00 1.358647e+00 
ITEM: TIMESTEP 
0 
ITEM: NUMBER OF ATOMS 
4 
ITEM: BOX BOUNDS 
0.000000e+00 2.000000e+00 xlo xhi 
0.000000e+00 2.000000e+00 xlo xhi 
0.000000e+00 2.000000e+00 xlo xhi 
ITEM: ATOMS id type x y z 
0 0 3.272237e-01 1.843314e+00 1.473015e+00 
1 1 6.579480e-02 1.988747e+00 1.990867e+00 
2 2 1.968669e-01 2.818652e-01 1.854149e+00 
3 3 6.610072e-01 1.614354e+00 1.034616e+00 
ITEM: TIMESTEP 
0 
ITEM: NUMBER OF ATOMS 
4 
ITEM: BOX BOUNDS 
0.000000e+00 2.000000e+00 xlo xhi 
0.000000e+00 2.000000e+00 xlo xhi 
0.000000e+00 2.000000e+00 xlo xhi 
ITEM: ATOMS id type x y z 
0 0 1.592649e+00 9.762407e-01 1.176747e+00 
1 1 5.864594e-01 1.618771e+00 1.249543e+00 
2 2 1.600183e-01 1.841632e+00 1.695453e+00 
3 3 1.222139e+00 1.324407e+00 1.798236e-01 
ITEM: TIMESTEP 
0 
ITEM: NUMBER OF ATOMS 
4 
ITEM: BOX BOUNDS 
0.000000e+00 2.000000e+00 xlo xhi 
0.000000e+00 2.000000e+00 xlo xhi 
0.000000e+00 2.000000e+00 xlo xhi 
ITEM: ATOMS id type x y z 
0 0 4.996644e-01 1.856043e+00 7.868980e-01 
1 1 1.743503e+00 9.269695e-01 3.375075e-01 
2 2 1.251357e+00 1.915121e-01 7.359708e-01 
3 3 6.097335e-01 2.034438e-01 3.828327e-01 
ITEM: TIMESTEP 
0 
ITEM: NUMBER OF ATOMS 
4 
ITEM: BOX BOUNDS 
0.000000e+00 2.000000e+00 xlo xhi 
0.000000e+00 2.000000e+00 xlo xhi 
0.000000e+00 2.000000e+00 xlo xhi 
ITEM: ATOMS id type x y z 
0 0 1.781362e+00 1.685245e+00 2.425643e-01 
1 1 9.661521e-01 1.698267e+00 6.680745e-01 
2 2 8.548441e-01 9.987810e-01 8.250604e-01 
3 3 1.057991e+00 1.616134e+00 1.032623e-01 
ITEM: TIMESTEP 
0 
ITEM: NUMBER OF ATOMS 
4 
ITEM: BOX BOUNDS 
0.000000e+00 2.000000e+00 xlo xhi 
0.000000e+00 2.000000e+00 xlo xhi 
0.000000e+00 2.000000e+00 xlo xhi 
ITEM: ATOMS id type x y z 
0 0 6.425969e-01 2.154340e-01 3.663240e-01 
1 1 1.042302e+00 1.888353e+00 1.133511e+00 
2 2 1.413072e+00 1.106284e+00 7.343258e-01 
3 3 3.581819e-01 1.630314e+00 1.383706e+00 
ITEM: TIMESTEP 
0 
ITEM: NUMBER OF ATOMS 
4 
ITEM: BOX BOUNDS 
0.000000e+00 2.000000e+00 xlo xhi 
0.000000e+00 2.000000e+00 xlo xhi 
0.000000e+00 2.000000e+00 xlo xhi 
ITEM: ATOMS id type x y z 
0 0 1.512277e+00 5.527629e-02 1.301263e+00 
1 1 1.645990e+00 1.248274e+00 4.530849e-01 
2 2 4.369419e-01 2.743945e-01 3.261085e-01 
3 3 7.440651e-01 1.196307e-01 1.463918e+00 
ITEM: TIMESTEP 
0 
ITEM: NUMBER OF ATOMS 
4 
ITEM: BOX BOUNDS 
0.000000e+00 2.000000e+00 xlo xhi 
0.000000e+00 2.000000e+00 xlo xhi 
0.000000e+00 2.000000e+00 xlo xhi 
ITEM: ATOMS id type x y z 
0 0 7.441873e-02 1.409813e+00 1.210660e+00 
1 1 3.560260e-01 1.155997e+00 4.281094e-01 
2 2 1.790879e+00 1.419153e+00 1.164990e+00 
3 3 9.399040e-01 5.851013e-01 7.846357e-01 
ITEM: TIMESTEP 
0 
ITEM: NUMBER OF ATOMS 
4 
ITEM: BOX BOUNDS 
0.000000e+00 2.000000e+00 xlo xhi 
0.000000e+00 2.000000e+00 xlo xhi 
0.000000e+00 2.000000e+00 xlo xhi 
ITEM: ATOMS id type x y z 
0 0 2.044334e-01 1.550810e+00 6.101504e-01 
1 1 1.033035e+00 1.944171e+00 1.930490e+00 
2 2 6.955251e-01 7.374100e-01 6.368934e-01 
3 3 1.839151e+00 1.227021e+00 5.392573e-01 
ITEM: TIMESTEP 
0 
ITEM: NUMBER OF ATOMS 
4 
ITEM: BOX BOUNDS 
0.000000e+00 2.000000e+00 xlo xhi 
0.000000e+00 2.000000e+00 xlo xhi 
0.000000e+00 2.000000e+00 xlo xhi 
ITEM: ATOMS id type x y z 
0 0 1.034092e+00 7.780857e-01 7.533028e-01 
1 1 1.291509e+00 5.144389e-02 6.865450e-01 
2 2 6.551411e-01 1.888555e+00 1.693854e+00 
3 3 1.046266e+00 1.657770e+00 7.637829e-01 
ITEM: TIMESTEP 
0 
ITEM: NUMBER OF ATOMS 
4 
ITEM: BOX BOUNDS 
0.000000e+00 2.000000e+00 xlo xhi 
0.000000e+00 2.000000e+00 xlo xhi 
0.000000e+00 2.000000e+00 xlo xhi 
ITEM: ATOMS id type x y z 
0 0 1.485781e+00 1.773996e+00 1.883649e+00 
1 1 4.620984e-01 1.879618e+00 1.814059e+00 
2 2 1.026854e+00 1.387637e+00 3.167287e-01 
3 3 9.244780e-01 3.862124e-01 1.179802e-01 
ITEM: TIMESTEP 
0 
ITEM: NUMBER OF ATOMS 
4 
ITEM: BOX BOUNDS 
0.000000e+00 2.000000e+00 xlo xhi 
0.000000e+00 2.000000e+00 xlo xhi 
0.000000e+00 2.000000e+00 xlo xhi 
ITEM: ATOMS id type x y z 
0 0 1.849431e+00 1.478178e+00 1.199048e+00 
1 1 9.874020e-01 1.670719e+00 1.928007e+00 
2 2 1.045337e+00 1.094560e+00 1.930333e+00 
3 3 1.327108e+00 3.275858e-01 1.326186e+00 
ITEM: TIMESTEP 
0 
ITEM: NUMBER OF ATOMS 
4 
ITEM: BOX BOUNDS 
0.000000e+00 2.000000e+00 xlo xhi 
0.000000e+00 2.000000e+00 xlo xhi 
0.000000e+00 2.000000e+00 xlo xhi 
ITEM: ATOMS id type x y z 
0 0 1.640014e+00 9.548513e-01 1.885352e+00 
1 1 1.625373e+00 8.059492e-01 1.147812e-01 
2 2 1.187503e+00 6.119710e-01 1.951242e-01 
3 3 1.280189e+00 1.353460e+00 4.003598e-01 
ITEM: TIMESTEP 
0 
ITEM: NUMBER OF ATOMS 
4 
ITEM: BOX BOUNDS 
0.000000e+00 2.000000e+00 xlo xhi 
0.000000e+00 2.000000e+00 xlo xhi 
0.000000e+00 2.000000e+00 xlo xhi 
ITEM: ATOMS id type x y z 
0 0 2.686625e-01 9.790286e-01 9.908967e-01 
1 1 4.342688e-01 4.654760e-01 1.289912e+00 
2 2 1.711777e+00 1.223870e+00 1.605738e+00 
3 3 9.183252e-01 2.235447e-01 8.559133e-01 
ITEM: TIMESTEP 
0 
ITEM: NUMBER OF ATOMS 
4 
ITEM: BOX BOUNDS 
0.000000e+00 2.000000e+00 xlo xhi 
0.000000e+00 2.000000e+00 xlo xhi 
0.000000e+00 2.000000e+00 xlo xhi 
ITEM: ATOMS id type x y z 
0 0 1.595302e+00 1.595562e+00 1.276259e+00 
1 1 8.851340e-01 1.857723e+00 1.889017e-01 
2 2 1.242219e+00 8.184811e-01 2.121121e-02 
3 3 1.518056e-01 1.801038e+00 1.307831e+00 
ITEM: TIMESTEP 
0 
ITEM: NUMBER OF ATOMS 
4 
ITEM: BOX BOUNDS 
0.000000e+00 2.000000e+00 xlo xhi 
0.000000e+00 2.000000e+00 xlo xhi 
0.000000e+00 2.000000e+00 xlo xhi 
ITEM: ATOMS id type x y z 
0 0 1.424908e+00 1.487967e+00 1.898992e+00 
1 1 1.588098e+00 1.776372e+00 6.034958e-01 
2 2 1.881227e+00 1.854067e-01 1.904895e+00 
3 3 3.290257e-01 1.818012e+00 3.150093e-01 
ITEM: TIMESTEP 
0 
ITEM: NUMBER OF ATOMS 
4 
ITEM: BOX BOUNDS 
0.000000e+00 2.000000e+00 xlo xhi 
0.000000e+00 2.000000e+00 xlo xhi 
0.000000e+00 2.000000e+00 xlo xhi 
ITEM: ATOMS id type x y z 
0 0 7.399289e-01 9.880664e-01 6.996461e-02 
1 1 1.293394e+00 1.454681e+00 1.022407e+00 
2 2 6.245045e-01 8.219860e-01 2.879269e-01 
3 3 5.890326e-01 1.209403e+00 1.116881e+00 
ITEM: TIMESTEP 
0 
ITEM: NUMBER OF ATOMS 
4 
ITEM: BOX BOUNDS 
0.000000e+00 2.000000e+00 xlo xhi 
0.000000e+00 2.000000e+00 xlo xhi 
0.000000e+00 2.000000e+00 xlo xhi 
ITEM: ATOMS id type x y z 
0 0 1.504668e+00 1.304611e+00 1.036934e+00 
1 1 8.611461e-01 1.671184e+00 3.443623e-01 
2 2 8.556512e-01 9.329619e-01 1.762640e+00 
3 3 5.951787e-01 1.784267e+00 9.521661e-01 
ITEM: TIMESTEP 
0 
ITEM: NUMBER OF ATOMS 
4 
ITEM: BOX BOUNDS 
0.000000e+00 2.000000e+00 xlo xhi 
0.000000e+00 2.000000e+00 xlo xhi 
0.000000e+00 2.000000e+00 xlo xhi 
ITEM: ATOMS id type x y z 
0 0 1.722551e+00 1.156765e+00 1.887520e-01 
1 1 8.492251e-01 1.940919e+00 1.500561e+00 
2 2 8.056260e-01 1.868833e+00 1.805802e+00 
3 3 1.433251e+00 1.958396e+00 1.992836e+00 
ITEM: TIMESTEP 
0 
ITEM: NUMBER OF ATOMS 
4 
ITEM: BOX BOUNDS 
0.000000e+00 2.000000e+00 xlo xhi 
0.000000e+00 2.000000e+00 xlo xhi 
0.000000e+00 2.000000e+00 xlo xhi 
ITEM: ATOMS id type x y z 
0 0 1.608288e+00 2.595776e-01 1.842577e+00 
1 1 5.022833e-01 3.291368e-01 1.743853e+00 
2 2 5.272608e-01 4.893481e-01 1.295572e+00 
3 3 1.463890e+00 1.091426e+00 1.761306e+00 
ITEM: TIMESTEP 
0 
ITEM: NUMBER OF ATOMS 
4 
ITEM: BOX BOUNDS 
0.000000e+00 2.000000e+00 xlo xhi 
0.000000e+00 2.000000e+00 xlo xhi 
0.000000e+00 2.000000e+00 xlo xhi 
ITEM: ATOMS id type x y z 
0 0 1.098378e+00 9.475572e-01 1.402491e+00 
1 1 1.145234e+00 2.930528e-01 1.263840e+00 
2 2 3.672119e-01 7.291113e-02 1.991965e+00 
3 3 9.556190e-01 1.107621e-01 8.807973e-01 
ITEM: TIMESTEP 
0 
ITEM: NUMBER OF ATOMS 
4 
ITEM: BOX BOUNDS 
0.000000e+00 2.000000e+00 xlo xhi 
0.000000e+00 2.000000e+00 xlo xhi 
0.000000e+00 2.000000e+00 xlo xhi 
ITEM: ATOMS id type x y z 
0 0 1.345241e+00 6.695145e-01 1.267543e+00 
1 1 9.179098e-01 1.833918e+00 1.576565e+00 
2 2 1.718811e+00 2.925065e-01 5.814076e-01 
3 3 1.100130e+00 1.892571e+00 7.246716e-01 
ITEM: TIMESTEP 
0 
ITEM: NUMBER OF ATOMS 
4 
ITEM: BOX BOUNDS 
0.000000e+00 2.000000e+00 xlo xhi 
0.000000e+00 2.000000e+00 xlo xhi 
0.000000e+00 2.000000e+00 xlo xhi 
ITEM: ATOMS id type x y z 
0 0 8.519052e-01 1.627670e+00 3.866619e-01 
1 1 6.912051e-01 1.727057e+00 1.454449e+00 
2 2 2.915222e-01 1.336744e-01 1.142217e+00 
3 3 7.090529e-01 4.821209e-01 1.472574e+00 
ITEM: TIMESTEP 
0 
ITEM: NUMBER OF ATOMS 
4 
ITEM: BOX BOUNDS 
0.000000e+00 2.000000e+00 xlo xhi 
0.000000e+00 2.000000e+00 xlo xhi 
0.000000e+00 2.000000e+00 xlo xhi 
ITEM: ATOMS id type x y z 
0 0 9.930394e-01 4.538389e-01 1.485484e-02 
1 1 1.694876e+00 1.559275e-01 1.854865e+00 
2 2 2.036097e-01 1.932358e+00 1.137076e+00 
3 3 9.327611e-01 7.237474e-01 1.416753e+00 
ITEM: TIMESTEP 
0 
ITEM: NUMBER OF ATOMS 
4 
ITEM: BOX BOUNDS 
0.000000e+00 2.000000e+00 xlo xhi 
0.000000e+00 2.000000e+00 xlo xhi 
0.000000e+00 2.000000e+00 xlo xhi 
ITEM: ATOMS id type x y z 
0 0 1.185167e+00 1.762613e+00 1.823629e+00 
1 1 1.951017e+00 5.283884e-01 1.092863e+00 